 vasp.6.4.1 05Apr23 (build May 18 2023 15:07:29) complex                         
 executed on    LinuxNV_CrayMPICH date 2023.07.15  17:33:13
 running    4 mpi-ranks, with    8 threads/rank, on    1 nodes
 distrk:  each k-point on    4 cores,    1 groups
 distr:  one band on NCORE=   1 cores,    4 groups
 OpenACC runtime initialized ...    4 GPUs detected


--------------------------------------------------------------------------------------------------------


 INCAR:
   NELM = 1
   EDIFF = 1e-6
   LORBIT = 11

 POTCAR:    PAW_PBE I 08Apr2002                   
 POTCAR:    PAW_PBE I 08Apr2002                   
   VRHFIN =I : s2p5                                                                                 
   LEXCH  = PE                                                                                      
   EATOM  =   315.8678 eV,   23.2156 Ry                                                             
                                                                                                    
   TITEL  = PAW_PBE I 08Apr2002                                                                     
   LULTRA =        F    use ultrasoft PP ?                                                          
   IUNSCR =        1    unscreen: 0-lin 1-nonlin 2-no                                               
   RPACOR =    2.200    partial core radius                                                         
   POMASS =  126.904; ZVAL   =    7.000    mass and valenz                                          
   RCORE  =    2.300    outmost cutoff radius                                                       
   RWIGS  =    2.810; RWIGS  =    1.487    wigner-seitz radius (au A)                               
   ENMAX  =  175.647; ENMIN  =  131.735 eV                                                          
   ICORE  =        3    local potential                                                             
   LCOR   =        T    correct aug charges                                                         
   LPAW   =        T    paw PP                                                                      
   EAUG   =  370.139                                                                                
   DEXC   =    0.000                                                                                
   RMAX   =    2.359    core radius for proj-oper                                                   
   RAUG   =    1.300    factor for augmentation sphere                                              
   RDEP   =    2.392    radius for radial grids                                                     
   RDEPT  =    2.170    core radius for aug-charge                                                  
                                                                                                    
   Atomic configuration                                                                             
   13 entries                                                                                       
     n  l   j            E        occ.                                                              
     1  0  0.50    -32976.3739   2.0000                                                             
     2  0  0.50     -5094.5933   2.0000                                                             
     2  1  1.50     -4572.0131   6.0000                                                             
     3  0  0.50     -1028.2813   2.0000                                                             
     3  1  1.50      -859.0250   6.0000                                                             
     3  2  2.50      -605.7620  10.0000                                                             
     4  0  0.50      -180.5540   2.0000                                                             
     4  1  1.50      -127.5306   6.0000                                                             
     4  2  2.50       -50.2720  10.0000                                                             
     5  0  0.50       -17.4058   2.0000                                                             
     5  1  0.50        -7.0851   5.0000                                                             
     5  2  1.50        -7.0750   0.0000                                                             
     4  3  2.50        -7.0750   0.0000                                                             
   Description                                                                                      
     l       E           TYP  RCUT    TYP  RCUT                                                     
     0    -17.4058016     23  2.300                                                                 
     0    -18.7663842     23  2.300                                                                 
     1     -7.0850686     23  2.300                                                                 
     1     -4.2150896     23  2.300                                                                 
     2     -7.0750295     23  2.300                                                                 
     3     -1.3605826     23  2.300                                                                 
  local pseudopotential read in
  partial core-charges read in
  partial kinetic energy density read in
  atomic valenz-charges read in
  non local Contribution for L=            0  read in
    real space projection operators read in
  non local Contribution for L=            0  read in
    real space projection operators read in
  non local Contribution for L=            1  read in
    real space projection operators read in
  non local Contribution for L=            1  read in
    real space projection operators read in
  non local Contribution for L=            2  read in
    real space projection operators read in
    PAW grid and wavefunctions read in
 
   number of l-projection  operators is LMAX  =            5
   number of lm-projection operators is LMMAX =           13
 
  PAW_PBE I 08Apr2002                   :
 energy of atom  1       EATOM= -315.8678
 kinetic energy error for atom=    0.0218 (will be added to EATOM!!)
 
 
 POSCAR: I2
  positions in direct lattice
  velocities in cartesian coordinates
  No initial velocities read in
 exchange correlation table for  LEXCH =        8
   RHO(1)=    0.500       N(1)  =     2000
   RHO(2)=  100.500       N(2)  =     4000
 


--------------------------------------------------------------------------------------------------------


 ion  position               nearest neighbor table
   1  0.000  0.500  0.000-
   2  0.500  0.000  0.500-
 
  LATTYP: Found a simple orthorhombic cell.
 ALAT       =     2.8804273910
 B/A-ratio  =     1.4569719518
 C/A-ratio  =     2.5736631640
  
  Lattice vectors:
  
 A1 = (   2.8804273910,   0.0000000000,   0.0000000000)
 A2 = (   0.0000000000,   4.1967019180,   0.0000000000)
 A3 = (   0.0000000000,   0.0000000000,   7.4132498729)


Analysis of symmetry for initial positions (statically):
=====================================================================
 Subroutine PRICEL returns following result:
 
  LATTYP: Found a body centered orthorhombic cell.
 ALAT       =     2.8804273910
 B/A-ratio  =     1.4569719518
 C/A-ratio  =     2.5736631640
  
  Lattice vectors:
  
 A1 = (  -1.4402136955,  -2.0983509590,  -3.7066249365)
 A2 = (   1.4402136955,   2.0983509590,  -3.7066249365)
 A3 = (   1.4402136955,  -2.0983509590,   3.7066249365)
 
   2 primitive cells build up your supercell.
 

 Routine SETGRP: Setting up the symmetry group for a 
 simple orthorhombic supercell.


 Subroutine GETGRP returns: Found  8 space group operations
 (whereof  8 operations were pure point group operations)
 out of a pool of  8 trial point group operations.


The static configuration has the point symmetry D_2h.


Analysis of symmetry for dynamics (positions and initial velocities):
=====================================================================
 Subroutine PRICEL returns following result:
 
  LATTYP: Found a body centered orthorhombic cell.
 ALAT       =     2.8804273910
 B/A-ratio  =     1.4569719518
 C/A-ratio  =     2.5736631640
  
  Lattice vectors:
  
 A1 = (  -1.4402136955,  -2.0983509590,  -3.7066249365)
 A2 = (   1.4402136955,   2.0983509590,  -3.7066249365)
 A3 = (   1.4402136955,  -2.0983509590,   3.7066249365)
 
   2 primitive cells build up your supercell.
 

 Routine SETGRP: Setting up the symmetry group for a 
 simple orthorhombic supercell.


 Subroutine GETGRP returns: Found  8 space group operations
 (whereof  8 operations were pure point group operations)
 out of a pool of  8 trial point group operations.


The dynamic configuration has the point symmetry D_2h.


 Subroutine INISYM returns: Found  8 space group operations
 (whereof  8 operations are pure point group operations),
 and found     2 'primitive' translations


----------------------------------------------------------------------------------------

                                     Primitive cell                                     

  volume of cell :      44.8068

  direct lattice vectors                    reciprocal lattice vectors
    -1.440213696 -2.098350959 -3.706624936     0.000000000 -0.238282351 -0.134893605
     1.440213696  2.098350959 -3.706624936     0.347170702 -0.000000000 -0.134893605
     1.440213696 -2.098350959  3.706624936     0.347170702 -0.238282351 -0.000000000

  length of vectors
     4.496260742  4.496260742  4.496260742     0.273815200  0.372456415  0.421077161

  position of ions in fractional coordinates (direct lattice)
     0.500000000  1.000000000  0.500000000

  ion indices of the primitive-cell ions
   primitive index   ion index
                 1           1

----------------------------------------------------------------------------------------

 
 -----------------------------------------------------------------------------
|                                                                             |
|           W    W    AA    RRRRR   N    N  II  N    N   GGGG   !!!           |
|           W    W   A  A   R    R  NN   N  II  NN   N  G    G  !!!           |
|           W    W  A    A  R    R  N N  N  II  N N  N  G       !!!           |
|           W WW W  AAAAAA  RRRRR   N  N N  II  N  N N  G  GGG   !            |
|           WW  WW  A    A  R   R   N   NN  II  N   NN  G    G                |
|           W    W  A    A  R    R  N    N  II  N    N   GGGG   !!!           |
|                                                                             |
|     The requested file  could not be found or opened for reading            |
|     k-point information. Automatic k-point generation is used as a          |
|     fallback, which may lead to unwanted results.                           |
|                                                                             |
 -----------------------------------------------------------------------------

 

Automatic generation of k-mesh.
 Grid dimensions derived from KSPACING:
 generate k-points for:    5    3    2

 Generating k-lattice:

  Cartesian coordinates                     Fractional coordinates (reciprocal lattice)
     0.069434140 -0.000000000  0.000000000     0.200000000  0.000000000  0.000000000
     0.000000000  0.079427450  0.000000000     0.000000000  0.333333333  0.000000000
    -0.000000000 -0.000000000  0.067446802     0.000000000 -0.000000000  0.500000000

  Length of vectors
     0.069434140  0.079427450  0.067446802

  Shift w.r.t. Gamma in fractional coordinates (k-lattice)
     0.000000000  0.000000000  0.000000000

 
 Subroutine IBZKPT returns following result:
 ===========================================
 
 Found     12 irreducible k-points:
 
 Following reciprocal coordinates:
            Coordinates               Weight
  0.000000  0.000000  0.000000      1.000000
  0.200000  0.000000  0.000000      2.000000
  0.400000  0.000000  0.000000      2.000000
  0.000000  0.333333  0.000000      2.000000
  0.200000  0.333333  0.000000      4.000000
  0.400000  0.333333  0.000000      4.000000
  0.000000  0.000000  0.500000      1.000000
  0.200000  0.000000  0.500000      2.000000
  0.400000  0.000000  0.500000      2.000000
  0.000000  0.333333  0.500000      2.000000
  0.200000  0.333333  0.500000      4.000000
  0.400000  0.333333  0.500000      4.000000
 
 Following cartesian coordinates:
            Coordinates               Weight
  0.000000  0.000000  0.000000      1.000000
  0.069434  0.000000  0.000000      2.000000
  0.138868  0.000000  0.000000      2.000000
  0.000000  0.079427  0.000000      2.000000
  0.069434  0.079427  0.000000      4.000000
  0.138868  0.079427  0.000000      4.000000
  0.000000  0.000000  0.067447      1.000000
  0.069434  0.000000  0.067447      2.000000
  0.138868  0.000000  0.067447      2.000000
  0.000000  0.079427  0.067447      2.000000
  0.069434  0.079427  0.067447      4.000000
  0.138868  0.079427  0.067447      4.000000
 


--------------------------------------------------------------------------------------------------------




 Dimension of arrays:
   k-points           NKPTS =     12   k-points in BZ     NKDIM =     12   number of bands    NBANDS=     12
   number of dos      NEDOS =    301   number of ions     NIONS =      2
   non local maximal  LDIM  =      5   non local SUM 2l+1 LMDIM =     13
   total plane-waves  NPLWV =   3360
   max r-space proj   IRMAX =      1   max aug-charges    IRDMAX=   2368
   dimension x,y,z NGX =    10 NGY =   14 NGZ =   24
   dimension x,y,z NGXF=    20 NGYF=   28 NGZF=   48
   support grid    NGXF=    20 NGYF=   28 NGZF=   48
   ions per type =               2
   NGX,Y,Z   is equivalent  to a cutoff of   5.77,  5.55,  5.38 a.u.
   NGXF,Y,Z  is equivalent  to a cutoff of  11.54, 11.09, 10.76 a.u.

 SYSTEM =  unknown system                          
 POSCAR =  I2                                      

 Startparameter for this run:
   NWRITE =      2    write-flag & timer
   PREC   = normal    normal or accurate (medium, high low for compatibility)
   ISTART =      1    job   : 0-new  1-cont  2-samecut
   ICHARG =      0    charge: 1-file 2-atom 10-const
   ISPIN  =      1    spin polarized calculation?
   LNONCOLLINEAR =      F non collinear calculations
   LSORBIT =      F    spin-orbit coupling
   INIWAV =      1    electr: 0-lowe 1-rand  2-diag
   LASPH  =      F    aspherical Exc in radial PAW
 Electronic Relaxation 1
   ENCUT  =  175.6 eV  12.91 Ry    3.59 a.u.   3.11  4.54  8.01*2*pi/ulx,y,z
   ENINI  =  175.6     initial cutoff
   ENAUG  =  370.1 eV  augmentation charge cutoff
   NELM   =      1;   NELMIN=  2; NELMDL=  0     # of ELM steps 
   EDIFF  = 0.1E-05   stopping-criterion for ELM
   LREAL  =      F    real-space projection
   NLSPLINE    = F    spline interpolate recip. space projectors
   LCOMPAT=      F    compatible to vasp.4.4
   GGA_COMPAT  = T    GGA compatible to vasp.4.4-vasp.4.6
   LMAXPAW     = -100 max onsite density
   LMAXMIX     =    2 max onsite mixed and CHGCAR
   VOSKOWN=      0    Vosko Wilk Nusair interpolation
   ROPT   =    0.00000
 Ionic relaxation
   EDIFFG = 0.1E-04   stopping-criterion for IOM
   NSW    =      0    number of steps for IOM
   NBLOCK =      1;   KBLOCK =      1    inner block; outer block 
   IBRION =     -1    ionic relax: 0-MD 1-quasi-New 2-CG
   NFREE  =      0    steps in history (QN), initial steepest desc. (CG)
   ISIF   =      2    stress and relaxation
   IWAVPR =     10    prediction:  0-non 1-charg 2-wave 3-comb
   ISYM   =      2    0-nonsym 1-usesym 2-fastsym
   LCORR  =      T    Harris-Foulkes like correction to forces

   POTIM  = 0.5000    time-step for ionic-motion
   TEIN   =    0.0    initial temperature
   TEBEG  =    0.0;   TEEND  =   0.0 temperature during run
   SMASS  =  -3.00    Nose mass-parameter (am)
   estimated Nose-frequenzy (Omega)   =  0.10E-29 period in steps = 0.13E+47 mass=  -0.190E-27a.u.
   SCALEE = 1.0000    scale energy and forces
   NPACO  =    256;   APACO  = 10.0  distance and # of slots for P.C.
   PSTRESS=    0.0 pullay stress

  Mass of Ions in am
   POMASS = 126.90
  Ionic Valenz
   ZVAL   =   7.00
  Atomic Wigner-Seitz radii
   RWIGS  =  -1.00
  virtual crystal weights 
   VCA    =   1.00
   NELECT =      14.0000    total number of electrons
   NUPDOWN=      -1.0000    fix difference up-down

 DOS related values:
   EMIN   =  10.00;   EMAX   =-10.00  energy-range for DOS
   EFERMI =   0.00;   METHOD = LEGACY      
   ISMEAR =     1;   SIGMA  =   0.20  broadening in eV -4-tet -1-fermi 0-gaus

 Electronic relaxation 2 (details)
   IALGO  =     38    algorithm
   LDIAG  =      T    sub-space diagonalisation (order eigenvalues)
   LSUBROT=      F    optimize rotation matrix (better conditioning)
   TURBO    =      0    0=normal 1=particle mesh
   IRESTART =      0    0=no restart 2=restart with 2 vectors
   NREBOOT  =      0    no. of reboots
   NMIN     =      0    reboot dimension
   EREF     =   0.00    reference energy to select bands
   IMIX   =      4    mixing-type and parameters
     AMIX     =   0.40;   BMIX     =  1.00
     AMIX_MAG =   1.60;   BMIX_MAG =  1.00
     AMIN     =   0.10
     WC   =   100.;   INIMIX=   1;  MIXPRE=   1;  MAXMIX= -45

 Intra band minimization:
   WEIMIN = 0.0000     energy-eigenvalue tresh-hold
   EBREAK =  0.21E-07  absolut break condition
   DEPER  =   0.30     relativ break condition  

   TIME   =   0.40     timestep for ELM

  volume/ion in A,a.u.               =      44.81       302.37
  Fermi-wavevector in a.u.,A,eV,Ry     =   0.881711  1.666192 10.577364  0.777414
  Thomas-Fermi vector in A             =   2.002244
 
 Write flags
   LWAVE        =      T    write WAVECAR
   LDOWNSAMPLE  =      F    k-point downsampling of WAVECAR
   LCHARG       =      T    write CHGCAR
   LVTOT        =      F    write LOCPOT, total local potential
   LVHAR        =      F    write LOCPOT, Hartree potential only
   LELF         =      F    write electronic localiz. function (ELF)
   LORBIT       =     11    0 simple, 1 ext, 2 COOP (PROOUT), +10 PAW based schemes


 Dipole corrections
   LMONO  =      F    monopole corrections only (constant potential shift)
   LDIPOL =      F    correct potential (dipole corrections)
   IDIPOL =      0    1-x, 2-y, 3-z, 4-all directions 
   EPSILON=  1.0000000 bulk dielectric constant

 Exchange correlation treatment:
   GGA     =    --    GGA type
   LEXCH   =     8    internal setting for exchange type
   LIBXC   =     F    Libxc                    
   VOSKOWN =     0    Vosko Wilk Nusair interpolation
   LHFCALC =     F    Hartree Fock is set to
   LHFONE  =     F    Hartree Fock one center treatment
   AEXX    =    0.0000 exact exchange contribution

 Linear response parameters
   LEPSILON=     F    determine dielectric tensor
   LRPA    =     F    only Hartree local field effects (RPA)
   LNABLA  =     F    use nabla operator in PAW spheres
   LVEL    =     F    velocity operator in full k-point grid
   CSHIFT  =0.1000    complex shift for real part using Kramers Kronig
   OMEGAMAX=  -1.0    maximum frequency
   DEG_THRESHOLD= 0.2000000E-02 threshold for treating states as degnerate
   RTIME   =   -0.100 relaxation time in fs
  (WPLASMAI=    0.000 imaginary part of plasma frequency in eV, 0.658/RTIME)
   DFIELD  = 0.0000000 0.0000000 0.0000000 field for delta impulse in time
 
  Optional k-point grid parameters
   LKPOINTS_OPT  =     F    use optional k-point grid
   KPOINTS_OPT_MODE=     1    mode for optional k-point grid
 
 Orbital magnetization related:
   ORBITALMAG=     F  switch on orbital magnetization
   LCHIMAG   =     F  perturbation theory with respect to B field
   DQ        =  0.001000  dq finite difference perturbation B field
   LLRAUG    =     F  two centre corrections for induced B field
   LBONE     =     F  B-component reconstruction in AE one-centre
   LVGVCALC  =     T  calculate vGv susceptibility
   LVGVAPPL  =     F  apply vGv susceptibility instead of pGv for G=0

 Random number generation:
   RANDOM_GENERATOR = DEFAULT
   PCG_SEED         = not used


--------------------------------------------------------------------------------------------------------


 Static calculation
 charge density and potential will be updated during run
 non-spin polarized calculation
 Variant of blocked Davidson
 Davidson routine will perform the subspace rotation
 perform sub-space diagonalisation
    after iterative eigenvector-optimisation
 modified Broyden-mixing scheme, WC =      100.0
 initial mixing is a Kerker type mixing with AMIX =  0.4000 and BMIX =      1.0000
 Hartree-type preconditioning will be used
 using additional bands             5
 reciprocal scheme for non local part
 use partial core corrections
 calculate Harris-corrections to forces 
   (improved forces if not selfconsistent)
 use gradient corrections 
 use of overlap-Matrix (Vanderbilt PP)
 Methfessel and Paxton  Order N= 1 SIGMA  =   0.20


--------------------------------------------------------------------------------------------------------


  energy-cutoff  :      175.65
  volume of cell :       89.61
      direct lattice vectors                 reciprocal lattice vectors
     2.880427391  0.000000000  0.000000000     0.347170702 -0.000000000  0.000000000
     0.000000000  4.196701918  0.000000000     0.000000000  0.238282351  0.000000000
     0.000000000  0.000000000  7.413249873    -0.000000000 -0.000000000  0.134893605

  length of vectors
     2.880427391  4.196701918  7.413249873     0.347170702  0.238282351  0.134893605


 
 old parameters found on file WAVECAR:
  energy-cutoff  :      175.65
  volume of cell :       89.61
      direct lattice vectors                 reciprocal lattice vectors
     2.880427391  0.000000000  0.000000000     0.347170702 -0.000000000  0.000000000
     0.000000000  4.196701918  0.000000000     0.000000000  0.238282351  0.000000000
     0.000000000  0.000000000  7.413249873    -0.000000000 -0.000000000  0.134893605

  length of vectors

 
 k-points in units of 2pi/SCALE and weight: read from INCAR                         
   0.00000000  0.00000000  0.00000000       0.033
   0.06943414  0.00000000  0.00000000       0.067
   0.13886828  0.00000000  0.00000000       0.067
   0.00000000  0.07942745  0.00000000       0.067
   0.06943414  0.07942745  0.00000000       0.133
   0.13886828  0.07942745  0.00000000       0.133
   0.00000000  0.00000000  0.06744680       0.033
   0.06943414  0.00000000  0.06744680       0.067
   0.13886828  0.00000000  0.06744680       0.067
   0.00000000  0.07942745  0.06744680       0.067
   0.06943414  0.07942745  0.06744680       0.133
   0.13886828  0.07942745  0.06744680       0.133
 
 k-points in reciprocal lattice and weights: read from INCAR                         
   0.00000000  0.00000000  0.00000000       0.033
   0.20000000  0.00000000  0.00000000       0.067
   0.40000000  0.00000000  0.00000000       0.067
   0.00000000  0.33333333  0.00000000       0.067
   0.20000000  0.33333333  0.00000000       0.133
   0.40000000  0.33333333  0.00000000       0.133
   0.00000000  0.00000000  0.50000000       0.033
   0.20000000  0.00000000  0.50000000       0.067
   0.40000000  0.00000000  0.50000000       0.067
   0.00000000  0.33333333  0.50000000       0.067
   0.20000000  0.33333333  0.50000000       0.133
   0.40000000  0.33333333  0.50000000       0.133
 
 position of ions in fractional coordinates (direct lattice) 
   0.00000000  0.50000000  0.00000000
   0.50000000  0.00000000  0.50000000
 
 position of ions in cartesian coordinates  (Angst):
   0.00000000  2.09835096  0.00000000
   1.44021370  0.00000000  3.70662494
 


--------------------------------------------------------------------------------------------------------


 k-point   1 :   0.0000 0.0000 0.0000  plane waves:     487
 k-point   2 :   0.2000 0.0000 0.0000  plane waves:     478
 k-point   3 :   0.4000 0.0000 0.0000  plane waves:     472
 k-point   4 :   0.0000 0.3333 0.0000  plane waves:     457
 k-point   5 :   0.2000 0.3333 0.0000  plane waves:     472
 k-point   6 :   0.4000 0.3333 0.0000  plane waves:     483
 k-point   7 :   0.0000 0.0000 0.5000  plane waves:     476
 k-point   8 :   0.2000 0.0000 0.5000  plane waves:     470
 k-point   9 :   0.4000 0.0000 0.5000  plane waves:     482
 k-point  10 :   0.0000 0.3333 0.5000  plane waves:     464
 k-point  11 :   0.2000 0.3333 0.5000  plane waves:     472
 k-point  12 :   0.4000 0.3333 0.5000  plane waves:     478

 maximum and minimum number of plane-waves per node :       487      457

 maximum number of plane-waves:       487
 maximum index in each direction: 
   IXMAX=    3   IYMAX=    4   IZMAX=    8
   IXMIN=   -3   IYMIN=   -4   IZMIN=   -8


 serial   3D FFT for wavefunctions
 parallel 3D FFT for charge:
    minimum data exchange during FFTs selected (reduces bandwidth)


 total amount of memory used by VASP MPI-rank0    31654. kBytes
=======================================================================

   base      :      30000. kBytes
   nonl-proj :        624. kBytes
   fftplans  :        249. kBytes
   grid      :        468. kBytes
   one-center:         16. kBytes
   wavefun   :        297. kBytes
 
     INWAV:  cpu time      0.0069: real time      0.0027
 Broyden mixing: mesh for mixing (old mesh)
   NGX =  7   NGY =  9   NGZ = 17
  (NGX  = 20   NGY  = 28   NGZ  = 48)
  gives a total of   1071 points

 charge density for first step will be calculated from the start-wavefunctions


--------------------------------------------------------------------------------------------------------


 Maximum index for augmentation-charges           548 (set IRDMAX)


--------------------------------------------------------------------------------------------------------


 initial charge from wavefunction
 First call to EWALD:  gamma=   0.396
 Maximum number of real-space cells 4x 3x 2
 Maximum number of reciprocal cells 2x 3x 4

    FEWALD:  cpu time      0.0147: real time      0.0018


--------------------------------------- Ionic step        1  -------------------------------------------




--------------------------------------- Iteration      1(   1)  ---------------------------------------


    POTLOK:  cpu time      0.0964: real time      0.1352
    SETDIJ:  cpu time      0.0183: real time      0.0045
     EDDAV:  cpu time      0.1699: real time      0.1646
       DOS:  cpu time      0.0004: real time      0.0004
    --------------------------------------------
      LOOP:  cpu time      0.2849: real time      0.3047

 eigenvalue-minimisations  :   396
 total energy-change (2. order) :-0.1259607E+02  (-0.5945139E+02)
 number of electron      14.0000027 magnetization 
 augmentation part       -1.3969190 magnetization 

 Free energy of the ion-electron system (eV)
  ---------------------------------------------------
  alpha Z        PSCENC =         5.94073768
  Ewald energy   TEWEN  =      -550.10885230
  -Hartree energ DENC   =       -34.27644758
  -exchange      EXHF   =         0.00000000
  -V(xc)+E(xc)   XCENC  =       -26.72413516
  PAW double counting   =     95547.29795592   -95492.95272480
  entropy T*S    EENTRO =         0.00796722
  eigenvalues    EBANDS =       -93.47264601
  atomic energy  EATOM  =       631.69207087
  Solvation  Ediel_sol  =         0.00000000
  ---------------------------------------------------
  free energy    TOTEN  =       -12.59607416 eV

  energy without entropy =      -12.60404138  energy(sigma->0) =      -12.59872990


--------------------------------------------------------------------------------------------------------




 average (electrostatic) potential at core
  the test charge radii are     1.1875
  (the norm of the test charge is              1.0000)
       1-104.3443       2-104.3443
 
 
 
 E-fermi :  -1.6471     XC(G=0):  -8.7179     alpha+bet : -7.9114

 Fermi energy:        -1.6471184054

 k-point     1 :       0.0000    0.0000    0.0000
  band No.  band energies     occupation 
      1     -15.9552      2.00000
      2     -15.7650      2.00000
      3      -4.0693      2.00000
      4      -3.3232      2.00000
      5      -3.0453      2.00000
      6      -2.9315      2.00000
      7       1.2482     -0.00000
      8       1.7602     -0.00000
      9       5.9190      0.00000
     10       6.7512      0.00000
     11       8.8555      0.00000
     12       8.9944      0.00000

 k-point     2 :       0.2000    0.0000    0.0000
  band No.  band energies     occupation 
      1     -15.4401      2.00000
      2     -15.2052      2.00000
      3      -3.5992      2.00000
      4      -2.8719      2.00000
      5      -2.7389      2.00000
      6      -2.5316      2.00000
      7      -1.8522      2.05510
      8      -1.3922     -0.07020
      9       7.0350      0.00000
     10       7.9749      0.00000
     11       9.6242      0.00000
     12      10.3791      0.00000

 k-point     3 :       0.4000    0.0000    0.0000
  band No.  band energies     occupation 
      1     -14.2818      2.00000
      2     -14.2128      2.00000
      3      -6.6686      2.00000
      4      -6.5990      2.00000
      5      -2.1419      2.00260
      6      -1.6849      1.31360
      7      -1.0575     -0.00025
      8      -0.6978     -0.00000
      9       7.7472      0.00000
     10       8.0891      0.00000
     11       8.5752      0.00000
     12       9.8317      0.00000

 k-point     4 :       0.0000    0.3333    0.0000
  band No.  band energies     occupation 
      1     -16.0539      2.00000
      2     -15.6120      2.00000
      3      -3.8770      2.00000
      4      -3.7432      2.00000
      5      -3.5079      2.00000
      6      -3.0669      2.00000
      7       1.4066     -0.00000
      8       1.6523     -0.00000
      9       7.8346      0.00000
     10       8.4500      0.00000
     11       8.9061      0.00000
     12       9.5193      0.00000

 k-point     5 :       0.2000    0.3333    0.0000
  band No.  band energies     occupation 
      1     -15.3803      2.00000
      2     -15.0810      2.00000
      3      -3.3639      2.00000
      4      -3.3102      2.00000
      5      -3.1568      2.00000
      6      -2.6342      2.00000
      7      -2.2606      2.00013
      8      -1.7817      1.90018
      9       8.4302      0.00000
     10       8.7907      0.00000
     11       9.4641      0.00000
     12      10.6763      0.00000

 k-point     6 :       0.4000    0.3333    0.0000
  band No.  band energies     occupation 
      1     -14.1459      2.00000
      2     -14.0004      2.00000
      3      -6.7346      2.00000
      4      -6.4252      2.00000
      5      -2.3418      2.00001
      6      -2.1362      2.00295
      7      -1.9891      2.03624
      8      -1.3499     -0.05653
      9       6.9207      0.00000
     10       7.3362      0.00000
     11       7.6401      0.00000
     12      10.9080      0.00000

 k-point     7 :       0.0000    0.0000    0.5000
  band No.  band energies     occupation 
      1     -16.1162      2.00000
      2     -15.9357      2.00000
      3      -3.5977      2.00000
      4      -3.4151      2.00000
      5      -2.9052      2.00000
      6      -2.5628      2.00000
      7       1.2852     -0.00000
      8       1.6118     -0.00000
      9       6.7042      0.00000
     10       7.1491      0.00000
     11       8.4072      0.00000
     12       8.9406      0.00000

 k-point     8 :       0.2000    0.0000    0.5000
  band No.  band energies     occupation 
      1     -15.5242      2.00000
      2     -15.3846      2.00000
      3      -3.1178      2.00000
      4      -2.9892      2.00000
      5      -2.7662      2.00000
      6      -2.7103      2.00000
      7      -2.5824      2.00000
      8      -2.5236      2.00000
      9       7.6323      0.00000
     10       7.7962      0.00000
     11       9.5137      0.00000
     12      10.2324      0.00000

 k-point     9 :       0.4000    0.0000    0.5000
  band No.  band energies     occupation 
      1     -14.1066      2.00000
      2     -13.9495      2.00000
      3      -6.7366      2.00000
      4      -6.6341      2.00000
      5      -2.0036      2.03023
      6      -1.8859      2.07061
      7      -1.6149      0.73145
      8      -1.1173     -0.00116
      9       7.2390      0.00000
     10       7.8104      0.00000
     11       8.9238      0.00000
     12       9.7486      0.00000

 k-point    10 :       0.0000    0.3333    0.5000
  band No.  band energies     occupation 
      1     -15.8945      2.00000
      2     -15.6333      2.00000
      3      -3.9222      2.00000
      4      -3.6523      2.00000
      5      -3.2495      2.00000
      6      -3.0949      2.00000
      7       1.5576     -0.00000
      8       1.7390     -0.00000
      9       7.0566      0.00000
     10       7.1456      0.00000
     11       8.6602      0.00000
     12       9.5707      0.00000

 k-point    11 :       0.2000    0.3333    0.5000
  band No.  band energies     occupation 
      1     -15.5385      2.00000
      2     -15.4060      2.00000
      3      -3.5494      2.00000
      4      -3.4774      2.00000
      5      -2.8997      2.00000
      6      -2.8691      2.00000
      7      -2.5064      2.00000
      8      -2.2725      2.00009
      9       7.7437      0.00000
     10       7.8594      0.00000
     11      10.2770      0.00000
     12      10.9882      0.00000

 k-point    12 :       0.4000    0.3333    0.5000
  band No.  band energies     occupation 
      1     -14.2302      2.00000
      2     -14.0492      2.00000
      3      -6.5443      2.00000
      4      -6.4802      2.00000
      5      -2.4014      2.00000
      6      -2.1929      2.00078
      7      -1.9084      2.06909
      8      -1.2578     -0.01892
      9       7.0535      0.00000
     10       7.1920      0.00000
     11       7.7074      0.00000
     12       9.3232      0.00000


--------------------------------------------------------------------------------------------------------


 soft charge-density along one line, spin component            1
         0         1         2         3         4         5         6         7         8         9
 total charge-density along one line
 
 pseudopotential strength for first ion, spin component:            1
 70.320  74.179  -0.000   0.000  -0.000  -0.000   0.000  -0.000
 74.179  78.254  -0.000   0.000  -0.000  -0.000   0.000  -0.000
 -0.000  -0.000  17.797   0.000   0.000  23.729   0.000   0.000
  0.000   0.000   0.000  17.786   0.000   0.000  23.714   0.000
 -0.000  -0.000   0.000   0.000  17.859   0.000   0.000  23.811
 -0.000  -0.000  23.729   0.000   0.000  31.648   0.000   0.000
  0.000   0.000   0.000  23.714   0.000   0.000  31.628   0.000
 -0.000  -0.000   0.000   0.000  23.811   0.000   0.000  31.756
  0.000   0.000  -0.000  -0.000  -0.000  -0.000  -0.000  -0.000
  0.000   0.000   0.000  -0.000  -0.000   0.000  -0.000  -0.000
 -0.036  -0.038   0.000   0.000   0.000   0.000   0.000   0.000
  0.000   0.000  -0.000  -0.000   0.000  -0.000  -0.000   0.000
  0.046   0.048   0.000   0.000  -0.000   0.000   0.000  -0.000
 total augmentation occupancy for first ion, spin component:            1
424.927 *******   0.000   0.000   0.000   0.000   0.000  -0.000   0.000   0.000   0.094  -0.000  -0.038
******* 411.397   0.000   0.000  -0.000   0.000  -0.000  -0.000  -0.000  -0.000  -0.049   0.000  -0.005
  0.000   0.000  41.479   0.000   0.000 -27.012  -0.000  -0.000  -0.000  -0.000   0.000   0.000  -0.000
  0.000   0.000   0.000  45.450   0.000  -0.000 -29.753  -0.000   0.000   0.000   0.000   0.000   0.000
  0.000  -0.000   0.000   0.000  44.237  -0.000  -0.000 -29.392   0.000   0.000  -0.000  -0.000  -0.000
  0.000   0.000 -27.012  -0.000  -0.000  17.641   0.000   0.000   0.000  -0.000  -0.000   0.000   0.000
  0.000   0.000  -0.000 -29.753  -0.000   0.000  19.521   0.000   0.000   0.000   0.000   0.000   0.000
  0.000   0.000  -0.000  -0.000 -29.392   0.000   0.000  19.587   0.000  -0.000  -0.000   0.000  -0.000
  0.000  -0.000  -0.000   0.000   0.000   0.000   0.000   0.000   0.054   0.000  -0.000   0.000  -0.000
  0.000  -0.000   0.000   0.000  -0.000   0.000   0.000  -0.000   0.000   0.048   0.000   0.000  -0.000
  0.094  -0.049   0.000  -0.000   0.000  -0.000   0.000   0.000  -0.000   0.000   0.058   0.000  -0.029
 -0.000   0.000   0.000   0.000  -0.000  -0.000   0.000  -0.000   0.000   0.000   0.000   0.052   0.000
 -0.038  -0.005   0.000  -0.000   0.000  -0.000   0.000  -0.000  -0.000  -0.000  -0.029   0.000   0.099


------------------------ aborting loop because EDIFF is reached ----------------------------------------





 total charge

# of ion       s       p       d       tot
------------------------------------------
    1        1.655   3.033   0.061   4.750
    2        1.655   3.033   0.061   4.750
--------------------------------------------------
tot          3.311   6.067   0.122   9.499
 
    CHARGE:  cpu time      0.0264: real time      0.0118
    FORLOC:  cpu time      0.0013: real time      0.0002
    FORNL :  cpu time      0.0252: real time      0.0146
    STRESS:  cpu time      0.1594: real time      0.1410
    FORCOR:  cpu time      0.0084: real time      0.0029
    FORHAR:  cpu time      0.0009: real time      0.0009
    MIXING:  cpu time      0.0012: real time      0.0003
    OFIELD:  cpu time      0.0001: real time      0.0000

  FORCE on cell =-STRESS in cart. coord.  units (eV):
  Direction    XX          YY          ZZ          XY          YZ          ZX
  --------------------------------------------------------------------------------------
  Alpha Z     5.94074     5.94074     5.94074
  Ewald     -59.57000  -241.98280  -248.55645     0.00000    -0.00000     0.00000
  Hartree    87.95168     9.10783     4.50719    -0.00000    -0.00000    -0.00000
  E(xc)     -47.62189   -47.71972   -47.70307     0.00000    -0.00000     0.00000
  Local    -357.63188   -80.15520   -67.79058    -0.00000    -0.00000    -0.00000
  n-local   330.53250   322.03684   321.85294    -1.20814     3.12835     1.22469
  augment   -85.72111   -89.50500   -90.29211     0.00000     0.00000     0.00000
  Kinetic   157.78214   176.61283   180.59373    -1.33991     1.81958    -0.38771
  Fock        0.00000     0.00000     0.00000     0.00000     0.00000     0.00000
  -------------------------------------------------------------------------------------
  Total      31.66217    54.33551    58.55239     0.00000     0.00000     0.00000
  in kB     566.07974   971.45042  1046.84285     0.00000     0.00000     0.00000
  external pressure =      861.46 kB  Pullay stress =        0.00 kB


 VOLUME and BASIS-vectors are now :
 -----------------------------------------------------------------------------
  energy-cutoff  :      175.65
  volume of cell :       89.61
      direct lattice vectors                 reciprocal lattice vectors
     2.880427391  0.000000000  0.000000000     0.347170702 -0.000000000  0.000000000
     0.000000000  4.196701918  0.000000000     0.000000000  0.238282351  0.000000000
     0.000000000  0.000000000  7.413249873    -0.000000000 -0.000000000  0.134893605

  length of vectors
     2.880427391  4.196701918  7.413249873     0.347170702  0.238282351  0.134893605


 FORCES acting on ions
    electron-ion (+dipol)            ewald-force                    non-local-force                 convergence-correction
 -----------------------------------------------------------------------------------------------
   0.972E-15 -.211E-13 0.718E-14   0.814E-15 0.234E-15 -.890E-14   0.248E-17 0.000E+00 0.000E+00   -.104E-14 -.898E-15 -.513E-14
   0.403E-13 0.147E-14 -.459E-13   -.106E-15 -.244E-15 0.891E-14   0.268E-17 0.239E-17 -.694E-17   -.474E-15 -.718E-15 0.963E-15
 -----------------------------------------------------------------------------------------------
   0.413E-13 -.197E-13 -.387E-13   0.708E-15 -.971E-17 0.105E-17   0.515E-17 0.239E-17 -.694E-17   -.151E-14 -.162E-14 -.417E-14
 
 
 POSITION                                       TOTAL-FORCE (eV/Angst)
 -----------------------------------------------------------------------------------
      0.00000      2.09835      0.00000         0.000000     -0.000000      0.000000
      1.44021      0.00000      3.70662        -0.000000      0.000000     -0.000000
 -----------------------------------------------------------------------------------
    total drift:                                0.000000     -0.000000     -0.000000


--------------------------------------------------------------------------------------------------------



  FREE ENERGIE OF THE ION-ELECTRON SYSTEM (eV)
  ---------------------------------------------------
  free  energy   TOTEN  =       -12.59607416 eV

  energy  without entropy=      -12.60404138  energy(sigma->0) =      -12.59872990
 


--------------------------------------------------------------------------------------------------------


    POTLOK:  cpu time      0.0212: real time      0.0062


--------------------------------------------------------------------------------------------------------


 writing wavefunctions
     LOOP+:  cpu time      0.5802: real time      0.5177
    4ORBIT:  cpu time      0.0000: real time      0.0000



 total charge

# of ion       s       p       d       tot
------------------------------------------
    1        1.655   3.033   0.061   4.750
    2        1.655   3.033   0.061   4.750
--------------------------------------------------
tot          3.311   6.067   0.122   9.499
 

 total amount of memory used by VASP MPI-rank0    31654. kBytes
=======================================================================

   base      :      30000. kBytes
   nonl-proj :        624. kBytes
   fftplans  :        249. kBytes
   grid      :        468. kBytes
   one-center:         16. kBytes
   wavefun   :        297. kBytes
 
  
  
 General timing and accounting informations for this job:
 ========================================================
  
                  Total CPU time used (sec):       21.696
                            User time (sec):       10.297
                          System time (sec):       11.399
                         Elapsed time (sec):       23.840
  
                   Maximum memory used (kb):     2174492.
                   Average memory used (kb):          N/A
  
                          Minor page faults:       344345
                          Major page faults:         6522
                 Voluntary context switches:        11869
 
 PROFILE, used timers:     265
 =============================
 
 index                 routine                    time                            calls level
----------------------------------------------------------------------------------------------
    1    total_time                           23.840487                                1   1
    2      init_acc                             12.827999                              1   2
    3      crpa_reader                           0.000021                              1   2
    4      acc_init_cublas                       4.438577                              1   2
    5      acc_init_cusolver                     1.233285                              1   2
    6      m_bcast_d                             0.004564                              2   2
    7      inisym                                0.014335                              1   2
    8        posmap                                0.000013                            2   3
    9      acc_cufft_makeplans                   1.389041                              3   2
   10        acc_cufft_makeplan                    1.389024                           19   3
   11      m_bcast_z                             0.001346                            145   2
   12      brgrid                                0.000026                              1   2
   13      stufak                                0.000023                              1   2
   14      fft3d_mpi                             0.001875                              3   2
   15        fftbrc_mpi                            0.001835                            3   3
   16          fftbas_plan_mpi                       0.001832                          3   4
   17            dfftw_execute                         0.000141                        9   5
   18            map_forward                           0.000261                        6   5
   19              map_gather                            0.000025                      3   6
   20              m_alltoallv_z                         0.000213                      3   6
   21              map_scatter                           0.000016                      3   6
   22      spher                                 0.001032                              1   2
   23      phase                                 0.000001                              1   2
   24      setdij_                               0.000531                              2   2
   25        m_sumb_d                              0.000117                            2   3
   26      vectorpot                             0.000005                              1   2
   27      proall                                0.023888                              1   2
   28        phase                                 0.000230                           12   3
   29        proj                                  0.003624                           12   3
   30          proj1_acc                             0.000599                         36   4
   31      orthch                                0.183345                              1   2
   32        overl                                 0.000151                           12   3
   33        redis_proj                            0.127543                           36   3
   34          m_alltoall_d                          0.127022                        108   4
   35        redis_pw                              0.004096                           24   3
   36          m_alltoall_d                          0.000520                         72   4
   37        orth1                                 0.033571                           12   3
   38        m_sumb_d                              0.001615                           12   3
   39        choleski                              0.009317                           12   3
   40        lincom                                0.004308                           12   3
   41      redis_pw_over_bands                   0.000000                              1   2
   42      set_charge                            0.014517                              1   2
   43        soft_charge                           0.013488                            1   3
   44          fftwav_mpi                            0.012716                         35   4
   45            fftwav                                0.012615                       35   5
   46              fft3d                                 0.012474                     35   6
   47          pw_charge                             0.000124                         35   4
   48          m_sumb_d                              0.000171                          1   4
   49          fft_gq                                0.000360                          1   4
   50            fft3d_mpi                             0.000357                        1   5
   51              fftbrc_mpi                            0.000336                      1   6
   52                fftbas_plan_mpi                       0.000335                    1   7
   53                  dfftw_execute                         0.000013                  3   8
   54                  map_backward                          0.000119                  2   8
   55                    map_gather                            0.000004                2   9
   56                    m_alltoallv_z                         0.000109                2   9
   57                    map_scatter                           0.000001                2   9
   58        m_sumb_d                              0.000051                            1   3
   59        depsum                                0.000047                            1   3
   60          m_sumb_d                              0.000029                          1   4
   61        augmentation_charge                   0.000696                            1   3
   62          fft3d_mpi                             0.000529                          1   4
   63            fftbrc_mpi                            0.000515                        1   5
   64              fftbas_plan_mpi                       0.000515                      1   6
   65                dfftw_execute                         0.000023                    3   7
   66                map_backward                          0.000049                    2   7
   67                  map_gather                            0.000008                  1   8
   68                  m_alltoallv_z                         0.000030                  1   8
   69                  map_scatter                           0.000006                  1   8
   70      fewald                                0.001831                              1   2
   71        rsp                                   0.001195                            1   3
   72        rcp                                   0.000008                            1   3
   73        m_sumb_d                              0.000089                            5   3
   74      elmin                                 0.308069                              1   2
   75        potlok                                0.133422                            1   3
   76          fft3d_mpi                             0.124927                         13   4
   77            fftbrc_mpi                            0.124167                       13   5
   78              fftbas_plan_mpi                       0.124161                     13   6
   79                map_forward                           0.116022                   14   7
   80                  map_gather                            0.000177                  8   8
   81                  m_alltoallv_z                         0.113942                  8   8
   82                  map_scatter                           0.001806                  8   8
   83                map_backward                          0.003962                   12   7
   84                  map_gather                            0.000130                  6   8
   85                  m_alltoallv_z                         0.000071                  6   8
   86                  map_scatter                           0.003646                  6   8
   87          ggaall_grid                           0.006941                          1   4
   88          m_sumb_d                              0.000036                          5   4
   89          pothar                                0.000104                          1   4
   90            m_sumb_d                              0.000011                        1   5
   91          m_bcast_d                             0.000020                          1   4
   92        potlok_metagga                        0.000000                            1   3
   93        vectorpot                             0.000005                            1   3
   94        setdij_                               0.003273                            1   3
   95          m_sumb_d                              0.002833                          1   4
   96        set_dd_magatom                        0.000005                            1   3
   97        set_dd_paw                            0.001191                            1   3
   98          set_rsgf_all                          0.000002                          1   4
   99          m_sumb_d                              0.001104                          7   4
  100        eddav                                 0.164587                            1   3
  101          phase                                 0.000146                         12   4
  102          redis_proj                            0.006546                        456   4
  103            m_alltoall_d                          0.003395                      504   5
  104          redis_pw                              0.016253                        357   4
  105            m_alltoall_d                          0.003366                      405   5
  106          newband                               0.025569                        104   4
  107            w1_copy                               0.000399                       72   5
  108            redis_pw                              0.001561                       36   5
  109              m_alltoall_d                          0.000325                     36   6
  110            redis_proj                            0.000485                       36   5
  111              m_alltoall_d                          0.000242                     36   6
  112            fftwav_mpi                            0.000707                       36   5
  113              fftwav                                0.000647                     36   6
  114                fft3d                                 0.000342                   36   7
  115            eccp                                  0.002300                       36   5
  116            truncate_high_frequency_w1            0.000004                       36   5
  117            setup_precond                         0.001304                       36   5
  118          m_sumb_d                              0.016110                        289   4
  119          hamiltmu                              0.010354                         92   4
  120            vhamil                                0.000689                      135   5
  121            overl1                                0.002271                      135   5
  122            vnlac0_acc                            0.001655                      135   5
  123            kinhamil                              0.002417                      135   5
  124              fftext_mpi                            0.001742                    135   6
  125                fft3d_mpi                             0.001121                  135   7
  126                  fft3d                                 0.001066                135   8
  127          overl                                 0.002043                        234   4
  128          truncate_high_frequency_w1            0.000009                        135   4
  129          w1_copy                               0.001747                        333   4
  130          orth1                                 0.004308                        276   4
  131          lapack                                0.042886                         92   4
  132          m_bcast_z                             0.001883                         92   4
  133          m_bcast_d                             0.001647                        184   4
  134          apply_precond                         0.000598                         99   4
  135          w1_projall                            0.001894                         68   4
  136            projmu_acc                            0.001835                       68   5
  137          ggemm                                 0.001289                        116   4
  138          fftwav_mpi                            0.001909                         99   4
  139            fftwav                                0.001756                       99   5
  140              fft3d                                 0.000877                     99   6
  141          lincom                                0.000389                         12   4
  142        m_sumb_d                              0.000062                            5   3
  143        densta                                0.000292                            1   3
  144          m_sumb_d                              0.000161                         29   4
  145      rotate_active_occupied_orbital        0.000000                              1   2
  146      sphpro_fast                           0.006893                              2   2
  147        m_sumb_d                              0.000081                            5   3
  148      force_and_stress                      0.173228                              1   2
  149        set_charge                            0.009644                            1   3
  150          soft_charge                           0.007869                          1   4
  151            fftwav_mpi                            0.000937                       24   5
  152              fftwav                                0.000896                     24   6
  153                fft3d                                 0.000196                   24   7
  154            pw_charge                             0.000584                       24   5
  155            m_sumb_d                              0.000821                        1   5
  156            fft_gq                                0.000330                        1   5
  157              fft3d_mpi                             0.000325                      1   6
  158                fftbrc_mpi                            0.000314                    1   7
  159                  fftbas_plan_mpi                       0.000313                  1   8
  160                    dfftw_execute                         0.000019                3   9
  161                    map_backward                          0.000080                2   9
  162                      map_gather                            0.000004              2  10
  163                      m_alltoallv_z                         0.000069              2  10
  164                      map_scatter                           0.000000              2  10
  165          m_sumb_d                              0.000053                          1   4
  166          depsum                                0.000754                          1   4
  167            m_sumb_d                              0.000030                        1   5
  168          augmentation_charge                   0.000735                          1   4
  169            fft3d_mpi                             0.000617                        1   5
  170              fftbrc_mpi                            0.000609                      1   6
  171                fftbas_plan_mpi                       0.000609                    1   7
  172                  dfftw_execute                         0.000027                  3   8
  173                  map_backward                          0.000110                  2   8
  174                    map_gather                            0.000008                1   9
  175                    m_alltoallv_z                         0.000095                1   9
  176                    map_scatter                           0.000004                1   9
  177        forloc                                0.000136                            1   3
  178          m_sumb_d                              0.000012                          1   4
  179        fornl                                 0.013768                            1   3
  180          phase                                 0.000406                         12   4
  181          m_sumb_d                              0.000014                          2   4
  182        fordep                                0.000807                            1   3
  183          setdij_                               0.000783                          6   4
  184            m_sumb_d                              0.000152                        6   5
  185        setdij_                               0.001788                           20   3
  186          m_sumb_d                              0.000408                         20   4
  187        set_dd_magatom                        0.000005                            1   3
  188        set_dd_paw                            0.000924                            1   3
  189          set_rsgf_all                          0.000000                          1   4
  190          m_sumb_d                              0.000890                          7   4
  191        strkin                                0.000122                            1   3
  192          m_sumb_d                              0.000017                          1   4
  193        strelo                                0.000265                            1   3
  194          m_sumb_d                              0.000011                          2   4
  195        strenl                                0.138914                            1   3
  196          spher                                 0.015442                         19   4
  197          phase                                 0.003603                        108   4
  198          proj1_acc                             0.020943                        324   4
  199          m_sumb_d                              0.000011                          1   4
  200        fft3d_mpi                             0.001653                           11   3
  201          fftbrc_mpi                            0.001242                         11   4
  202            fftbas_plan_mpi                       0.001233                       11   5
  203              map_forward                           0.000387                     10   6
  204                map_gather                            0.000124                    5   7
  205                m_alltoallv_z                         0.000054                    5   7
  206                map_scatter                           0.000128                    5   7
  207              map_backward                          0.000462                     12   6
  208                map_gather                            0.000101                    6   7
  209                m_alltoallv_z                         0.000062                    6   7
  210                map_scatter                           0.000147                    6   7
  211        ggaall_grid                           0.000062                            1   3
  212        m_sumb_d                              0.000032                            5   3
  213        forhar                                0.000215                            2   3
  214          m_sumb_d                              0.000015                          2   4
  215        strehar                               0.000228                            1   3
  216          m_sumb_d                              0.000004                          1   4
  217        chggra                                0.000788                            1   3
  218          fft3d_mpi                             0.000444                          3   4
  219            fftbrc_mpi                            0.000339                        3   5
  220              fftbas_plan_mpi                       0.000336                      3   6
  221                map_forward                           0.000159                    4   7
  222                  map_gather                            0.000052                  2   8
  223                  m_alltoallv_z                         0.000024                  2   8
  224                  map_scatter                           0.000046                  2   8
  225                map_backward                          0.000065                    2   7
  226                  map_gather                            0.000018                  1   8
  227                  m_alltoallv_z                         0.000009                  1   8
  228                  map_scatter                           0.000022                  1   8
  229          m_sumb_d                              0.000010                          2   4
  230          pothar                                0.000089                          1   4
  231            m_sumb_d                              0.000013                        1   5
  232        brmix                                 0.000267                            1   3
  233          m_sumb_d                              0.000021                          6   4
  234          brpre                                 0.000007                          1   4
  235          setg0                                 0.000059                          2   4
  236          broyd                                 0.000033                          1   4
  237            m_sumb_d                              0.000006                        2   5
  238            brsav                                 0.000005                        5   5
  239            brget                                 0.000002                        3   5
  240        m_bcast_d                             0.000014                            2   3
  241      potlok                                0.003268                              1   2
  242        fft3d_mpi                             0.002023                           13   3
  243          fftbrc_mpi                            0.001506                         13   4
  244            fftbas_plan_mpi                       0.001497                       13   5
  245              map_forward                           0.000579                     14   6
  246                map_gather                            0.000188                    8   7
  247                m_alltoallv_z                         0.000082                    8   7
  248                map_scatter                           0.000212                    8   7
  249              map_backward                          0.000471                     12   6
  250                map_gather                            0.000101                    6   7
  251                m_alltoallv_z                         0.000064                    6   7
  252                map_scatter                           0.000158                    6   7
  253        ggaall_grid                           0.000061                            1   3
  254        m_sumb_d                              0.000036                            5   3
  255        pothar                                0.000092                            1   3
  256          m_sumb_d                              0.000006                          1   4
  257        m_bcast_d                             0.000008                            1   3
  258      potlok_metagga                        0.000001                              1   2
  259      set_dd_magatom                        0.000004                              1   2
  260      set_dd_paw                            0.001003                              1   2
  261        set_rsgf_all                          0.000001                            1   3
  262        m_sumb_d                              0.000958                            7   3
  263      m_sumb_d                              0.004579                            244   2
  264      densta                                0.000460                              1   2
  265        m_sumb_d                              0.000328                           30   3
 
 Flat profile
 ============
 
             routine name                   CPU           calls
 ---------------------------------------------------------------
 init_acc                               12.827999           1
 acc_init_cublas                         4.438577           1
 total_time                              3.206740           1
 acc_cufft_makeplan                      1.389024          19
 acc_init_cusolver                       1.233285           1
 m_alltoall_d                            0.134871        1161
 m_alltoallv_z                           0.114824          51
 strenl                                  0.098916           1
 lapack                                  0.042886          92
 orth1                                   0.037880         288
 m_sumb_d                                0.030896         713
 eddav                                   0.029005           1
 proj1_acc                               0.021542         360
 proall                                  0.020035           1
 newband                                 0.018809         104
 redis_pw                                0.017699         417
 spher                                   0.016474          20
 fft3d                                   0.014955         329
 inisym                                  0.014322           1
 fornl                                   0.013348           1
 choleski                                0.009317          12
 fftbas_plan_mpi                         0.007882          47
 ggaall_grid                             0.007064           3
 sphpro_fast                             0.006812           2
 m_bcast_d                               0.006253         190
 map_scatter                             0.006193          51
 soft_charge                             0.005315           2
 elmin                                   0.005232           1
 lincom                                  0.004696          24
 phase                                   0.004384         145
 redis_proj                              0.003915         528
 force_and_stress                        0.003596           1
 hamiltmu                                0.003321          92
 m_bcast_z                               0.003229         237
 proj                                    0.003025          12
 setdij_                                 0.002865          29
 orthch                                  0.002744           1
 potlok                                  0.002442           2
 eccp                                    0.002300          36
 overl1                                  0.002271         135
 overl                                   0.002195         246
 w1_copy                                 0.002146         405
 fftwav                                  0.002025         194
 fft3d_mpi                               0.001942         182
 projmu_acc                              0.001835          68
 vnlac0_acc                              0.001655         135
 setup_precond                           0.001304          36
 ggemm                                   0.001289         116
 rsp                                     0.001195           1
 map_gather                              0.000940          51
 depsum                                  0.000742           2
 pw_charge                               0.000708          59
 vhamil                                  0.000689         135
 kinhamil                                0.000675         135
 fftext_mpi                              0.000621         135
 apply_precond                           0.000598          99
 fewald                                  0.000539           1
 set_charge                              0.000468           2
 map_backward                            0.000451          46
 fftwav_mpi                              0.000355         194
 map_forward                             0.000320          48
 augmentation_charge                     0.000285           2
 densta                                  0.000263           2
 pothar                                  0.000255           3
 strelo                                  0.000254           1
 chggra                                  0.000245           1
 strehar                                 0.000224           1
 dfftw_execute                           0.000223          21
 forhar                                  0.000200           2
 set_dd_paw                              0.000163           3
 brmix                                   0.000147           1
 forloc                                  0.000124           1
 strkin                                  0.000105           1
 w1_projall                              0.000059          68
 setg0                                   0.000059           2
 fftbrc_mpi                              0.000031          47
 brgrid                                  0.000026           1
 fordep                                  0.000024           1
 stufak                                  0.000023           1
 crpa_reader                             0.000021           1
 broyd                                   0.000020           1
 acc_cufft_makeplans                     0.000017           3
 set_dd_magatom                          0.000014           3
 truncate_high_frequency_w1              0.000013         171
 posmap                                  0.000013           2
 vectorpot                               0.000010           2
 fft_gq                                  0.000008           2
 rcp                                     0.000008           1
 brpre                                   0.000007           1
 brsav                                   0.000005           5
 set_rsgf_all                            0.000003           3
 brget                                   0.000002           3
 potlok_metagga                          0.000001           2
 rotate_active_occupied_orbital          0.000000           1
 redis_pw_over_bands                     0.000000           1
 ---------------------------------------------------------------
  summed up times     23.84048700332642     
 
 Accumulative profile
 ====================
 
             routine name                   CPU           calls
 ---------------------------------------------------------------
 total_time                             23.840487           1
 init_acc                               12.827999           1
 acc_init_cublas                         4.438577           1
 acc_cufft_makeplans                     1.389041           3
 acc_cufft_makeplan                      1.389024          19
 acc_init_cusolver                       1.233285           1
 elmin                                   0.308069           1
 orthch                                  0.183345           1
 force_and_stress                        0.173228           1
 eddav                                   0.164587           1
 strenl                                  0.138914           1
 potlok                                  0.136690           2
 m_alltoall_d                            0.134871        1161
 redis_proj                              0.134575         528
 fft3d_mpi                               0.133871         182
 fftbrc_mpi                              0.130863          47
 fftbas_plan_mpi                         0.130831          47
 map_forward                             0.117409          48
 m_alltoallv_z                           0.114824          51
 lapack                                  0.042886          92
 orth1                                   0.037880         288
 m_sumb_d                                0.030896         713
 newband                                 0.025569         104
 set_charge                              0.024161           2
 proall                                  0.023888           1
 redis_pw                                0.021910         417
 proj1_acc                               0.021542         360
 soft_charge                             0.021357           2
 spher                                   0.016474          20
 fftwav_mpi                              0.016269         194
 fftwav                                  0.015914         194
 fft3d                                   0.014955         329
 inisym                                  0.014335           1
 fornl                                   0.013768           1
 hamiltmu                                0.010354          92
 choleski                                0.009317          12
 ggaall_grid                             0.007064           3
 sphpro_fast                             0.006893           2
 setdij_                                 0.006375          29
 m_bcast_d                               0.006253         190
 map_scatter                             0.006193          51
 map_backward                            0.005318          46
 lincom                                  0.004696          24
 phase                                   0.004384         145
 proj                                    0.003624          12
 m_bcast_z                               0.003229         237
 set_dd_paw                              0.003118           3
 kinhamil                                0.002417         135
 eccp                                    0.002300          36
 overl1                                  0.002271         135
 overl                                   0.002195         246
 w1_copy                                 0.002146         405
 w1_projall                              0.001894          68
 projmu_acc                              0.001835          68
 fewald                                  0.001831           1
 fftext_mpi                              0.001742         135
 vnlac0_acc                              0.001655         135
 augmentation_charge                     0.001431           2
 setup_precond                           0.001304          36
 ggemm                                   0.001289         116
 rsp                                     0.001195           1
 map_gather                              0.000940          51
 fordep                                  0.000807           1
 depsum                                  0.000801           2
 chggra                                  0.000788           1
 densta                                  0.000752           2
 pw_charge                               0.000708          59
 fft_gq                                  0.000690           2
 vhamil                                  0.000689         135
 apply_precond                           0.000598          99
 pothar                                  0.000285           3
 brmix                                   0.000267           1
 strelo                                  0.000265           1
 strehar                                 0.000228           1
 dfftw_execute                           0.000223          21
 forhar                                  0.000215           2
 forloc                                  0.000136           1
 strkin                                  0.000122           1
 setg0                                   0.000059           2
 broyd                                   0.000033           1
 brgrid                                  0.000026           1
 stufak                                  0.000023           1
 crpa_reader                             0.000021           1
 set_dd_magatom                          0.000014           3
 truncate_high_frequency_w1              0.000013         171
 posmap                                  0.000013           2
 vectorpot                               0.000010           2
 rcp                                     0.000008           1
 brpre                                   0.000007           1
 brsav                                   0.000005           5
 set_rsgf_all                            0.000003           3
 brget                                   0.000002           3
 potlok_metagga                          0.000001           2
 rotate_active_occupied_orbital          0.000000           1
 redis_pw_over_bands                     0.000000           1
 ---------------------------------------------------------------
 
Profiling took   0.005180  0.003825  0.003258  0.003224 seconds
Profiling took   0.001125 seconds
