<?xml version="1.0" encoding="ISO-8859-1"?>
<modeling>
 <generator>
  <i name="program" type="string">vasp </i>
  <i name="version" type="string">6.4.1  </i>
  <i name="subversion" type="string">05Apr23 (build May 18 2023 15:07:29) complex                          parallel </i>
  <i name="platform" type="string">LinuxNV_CrayMPICH </i>
  <i name="date" type="string">2023 07 15 </i>
  <i name="time" type="string">17:33:13 </i>
 </generator>
 <incar>
  <i type="int" name="NELM">     1</i>
  <i name="EDIFF">      0.00000100</i>
  <i type="int" name="LORBIT">    11</i>
 </incar>
 <primitive_cell>
  <structure name="primitive_cell" >
   <crystal>
    <varray name="basis" >
     <v>      -1.44021370      -2.09835096      -3.70662494 </v>
     <v>       1.44021370       2.09835096      -3.70662494 </v>
     <v>       1.44021370      -2.09835096       3.70662494 </v>
    </varray>
    <i name="volume">     44.80677627 </i>
    <varray name="rec_basis" >
     <v>       0.00000000      -0.23828235      -0.13489360 </v>
     <v>       0.34717070      -0.00000000      -0.13489360 </v>
     <v>       0.34717070      -0.23828235      -0.00000000 </v>
    </varray>
   </crystal>
   <varray name="positions" >
    <v>       0.50000000       1.00000000       0.50000000 </v>
   </varray>
  </structure>
  <varray name="primitive_index" >
   <v type="int" >        1 </v>
  </varray>
 </primitive_cell>
 <kpoints>
  <generation param="Gamma">
   <v type="int" name="divisions">       5        3        2 </v>
   <v name="usershift">      0.00000000       0.00000000       0.00000000 </v>
   <v name="genvec1">      0.20000000       0.00000000       0.00000000 </v>
   <v name="genvec2">      0.00000000       0.33333333       0.00000000 </v>
   <v name="genvec3">      0.00000000      -0.00000000       0.50000000 </v>
   <v name="shift">      0.00000000       0.00000000       0.00000000 </v>
  </generation>
  <varray name="kpointlist" >
   <v>       0.00000000       0.00000000       0.00000000 </v>
   <v>       0.20000000       0.00000000       0.00000000 </v>
   <v>       0.40000000       0.00000000       0.00000000 </v>
   <v>       0.00000000       0.33333333       0.00000000 </v>
   <v>       0.20000000       0.33333333       0.00000000 </v>
   <v>       0.40000000       0.33333333       0.00000000 </v>
   <v>       0.00000000       0.00000000       0.50000000 </v>
   <v>       0.20000000       0.00000000       0.50000000 </v>
   <v>       0.40000000       0.00000000       0.50000000 </v>
   <v>       0.00000000       0.33333333       0.50000000 </v>
   <v>       0.20000000       0.33333333       0.50000000 </v>
   <v>       0.40000000       0.33333333       0.50000000 </v>
  </varray>
  <varray name="weights" >
   <v>       0.03333333 </v>
   <v>       0.06666667 </v>
   <v>       0.06666667 </v>
   <v>       0.06666667 </v>
   <v>       0.13333333 </v>
   <v>       0.13333333 </v>
   <v>       0.03333333 </v>
   <v>       0.06666667 </v>
   <v>       0.06666667 </v>
   <v>       0.06666667 </v>
   <v>       0.13333333 </v>
   <v>       0.13333333 </v>
  </varray>
 </kpoints>
 <parameters>
  <separator name="general" >
   <i type="string" name="SYSTEM">unknown system</i>
   <i type="logical" name="LCOMPAT"> F  </i>
  </separator>
  <separator name="electronic" >
   <i type="string" name="PREC">normal</i>
   <i name="ENMAX">    175.64700000</i>
   <i name="ENAUG">    370.13900000</i>
   <i name="EDIFF">      0.00000100</i>
   <i type="int" name="IALGO">    38</i>
   <i type="int" name="IWAVPR">    10</i>
   <i type="int" name="NBANDS">    12</i>
   <i type="int" name="NBANDSLOW">    -1</i>
   <i type="int" name="NBANDSHIGH">    -1</i>
   <i name="NELECT">     14.00000000</i>
   <i type="int" name="TURBO">     0</i>
   <i type="int" name="IRESTART">     0</i>
   <i type="int" name="NREBOOT">     0</i>
   <i type="int" name="NMIN">     0</i>
   <i name="EREF">      0.00000000</i>
   <separator name="electronic smearing" >
    <i type="int" name="ISMEAR">     1</i>
    <i name="SIGMA">      0.20000000</i>
    <i name="KSPACING">      0.50000000</i>
    <i type="logical" name="KGAMMA"> T  </i>
    <i type="logical" name="KBLOWUP"> T  </i>
   </separator>
   <separator name="electronic projectors" >
    <i type="logical" name="LREAL"> F  </i>
    <v name="ROPT">      0.00000000</v>
    <i type="int" name="LMAXPAW">  -100</i>
    <i type="int" name="LMAXMIX">     2</i>
    <i type="logical" name="NLSPLINE"> F  </i>
   </separator>
   <separator name="electronic startup" >
    <i type="int" name="ISTART">     1</i>
    <i type="int" name="ICHARG">     0</i>
    <i type="int" name="INIWAV">     1</i>
   </separator>
   <separator name="electronic spin" >
    <i type="int" name="ISPIN">     1</i>
    <i type="logical" name="LNONCOLLINEAR"> F  </i>
    <v name="MAGMOM">      1.00000000      1.00000000</v>
    <i name="NUPDOWN">     -1.00000000</i>
    <i type="logical" name="LSORBIT"> F  </i>
    <v name="SAXIS">      0.00000000      0.00000000      1.00000000</v>
    <i type="logical" name="LSPIRAL"> F  </i>
    <v name="QSPIRAL">      0.00000000      0.00000000      0.00000000</v>
    <i type="logical" name="LZEROZ"> F  </i>
   </separator>
   <separator name="electronic exchange-correlation" >
    <i type="logical" name="LASPH"> F  </i>
    <i type="logical" name="LMETAGGA"> F  </i>
   </separator>
   <separator name="electronic convergence" >
    <i type="int" name="NELM">     1</i>
    <i type="int" name="NELMDL">     0</i>
    <i type="int" name="NELMIN">     2</i>
    <i name="ENINI">    175.64700000</i>
    <separator name="electronic convergence detail" >
     <i type="logical" name="LDIAG"> T  </i>
     <i type="logical" name="LSUBROT"> F  </i>
     <i name="WEIMIN">      0.00000000</i>
     <i name="EBREAK">      0.00000002</i>
     <i name="DEPER">      0.30000000</i>
     <i type="int" name="NRMM">     4</i>
     <i name="TIME">      0.40000000</i>
    </separator>
   </separator>
   <separator name="electronic mixer" >
    <i name="AMIX">      0.40000000</i>
    <i name="BMIX">      1.00000000</i>
    <i name="AMIN">      0.10000000</i>
    <i name="AMIX_MAG">      1.60000000</i>
    <i name="BMIX_MAG">      1.00000000</i>
    <separator name="electronic mixer details" >
     <i type="int" name="IMIX">     4</i>
     <i type="logical" name="MIXFIRST"> F  </i>
     <i type="int" name="MAXMIX">   -45</i>
     <i name="WC">    100.00000000</i>
     <i type="int" name="INIMIX">     1</i>
     <i type="int" name="MIXPRE">     1</i>
     <i type="int" name="MREMOVE">     5</i>
    </separator>
   </separator>
   <separator name="electronic dipolcorrection" >
    <i type="logical" name="LDIPOL"> F  </i>
    <i type="logical" name="LMONO"> F  </i>
    <i type="int" name="IDIPOL">     0</i>
    <i name="EPSILON">      1.00000000</i>
    <v name="DIPOL">   -100.00000000   -100.00000000   -100.00000000</v>
    <i name="EFIELD">      0.00000000</i>
   </separator>
  </separator>
  <separator name="grids" >
   <i type="int" name="NGX">    10</i>
   <i type="int" name="NGY">    14</i>
   <i type="int" name="NGZ">    24</i>
   <i type="int" name="NGXF">    20</i>
   <i type="int" name="NGYF">    28</i>
   <i type="int" name="NGZF">    48</i>
   <i type="logical" name="ADDGRID"> F  </i>
  </separator>
  <separator name="ionic" >
   <i type="int" name="NSW">     0</i>
   <i type="int" name="IBRION">    -1</i>
   <i type="int" name="MDALGO">     0</i>
   <i type="int" name="ISIF">     2</i>
   <i name="PSTRESS">      0.00000000</i>
   <i name="EDIFFG">      0.00001000</i>
   <i type="int" name="NFREE">     0</i>
   <i name="POTIM">      0.50000000</i>
   <i name="SMASS">     -3.00000000</i>
   <i name="SCALEE">      1.00000000</i>
  </separator>
  <separator name="ionic md" >
   <i name="TEBEG">      0.00010000</i>
   <i name="TEEND">      0.00010000</i>
   <i type="int" name="NBLOCK">     1</i>
   <i type="int" name="KBLOCK">     1</i>
   <i type="int" name="NPACO">   256</i>
   <i name="APACO">     10.00000000</i>
  </separator>
  <separator name="symmetry" >
   <i type="int" name="ISYM">     2</i>
   <i name="SYMPREC">      0.00001000</i>
  </separator>
  <separator name="dos" >
   <i type="int" name="LORBIT">    11</i>
   <v name="RWIGS">     -1.00000000</v>
   <i type="int" name="NEDOS">   301</i>
   <i name="EMIN">     10.00000000</i>
   <i name="EMAX">    -10.00000000</i>
   <i name="EFERMI">      0.00000000</i>
  </separator>
  <separator name="writing" >
   <i type="int" name="NWRITE">     2</i>
   <i type="logical" name="LWAVE"> T  </i>
   <i type="logical" name="LDOWNSAMPLE"> F  </i>
   <i type="logical" name="LCHARG"> T  </i>
   <i type="logical" name="LPARD"> F  </i>
   <i type="logical" name="LVTOT"> F  </i>
   <i type="logical" name="LVHAR"> F  </i>
   <i type="logical" name="LELF"> F  </i>
   <i type="logical" name="LOPTICS"> F  </i>
   <v name="STM">      0.00000000      0.00000000      0.00000000      0.00000000      0.00000000      0.00000000      0.00000000</v>
  </separator>
  <separator name="performance" >
   <i type="int" name="NPAR">     4</i>
   <i type="int" name="NSIM">     4</i>
   <i type="int" name="NBLK">    -1</i>
   <i type="logical" name="LPLANE"> T  </i>
   <i type="logical" name="LSCALAPACK"> T  </i>
   <i type="logical" name="LSCAAWARE"> F  </i>
   <i type="logical" name="LSCALU"> F  </i>
   <i type="logical" name="LASYNC"> F  </i>
   <i type="logical" name="LORBITALREAL"> F  </i>
  </separator>
  <separator name="miscellaneous" >
   <i type="int" name="IDIOT">     3</i>
   <i type="int" name="PHON_NSTRUCT">    -1</i>
   <i type="logical" name="LMUSIC"> F  </i>
   <v name="POMASS">    126.90400000</v>
   <v name="DARWINR">      0.00000000</v>
   <v name="DARWINV">      1.00000000</v>
   <i type="logical" name="LCORR"> T  </i>
  </separator>
  <i type="logical" name="GGA_COMPAT"> T  </i>
  <i type="logical" name="LBERRY"> F  </i>
  <i type="int" name="ICORELEVEL">     0</i>
  <i type="logical" name="LDAU"> F  </i>
  <i type="int" name="I_CONSTRAINED_M">     0</i>
  <separator name="electronic exchange-correlation" >
   <i type="string" name="GGA">--</i>
   <i type="int" name="VOSKOWN">     0</i>
   <i type="logical" name="LHFCALC"> F  </i>
   <i type="string" name="PRECFOCK"></i>
   <i type="logical" name="LSYMGRAD"> F  </i>
   <i type="logical" name="LHFONE"> F  </i>
   <i type="logical" name="LRHFCALC"> F  </i>
   <i type="logical" name="LTHOMAS"> F  </i>
   <i type="logical" name="LMODELHF"> F  </i>
   <i type="logical" name="LFOCKACE"> F  </i>
   <i name="ENCUT4O">     -1.00000000</i>
   <i type="int" name="EXXOEP">     0</i>
   <i type="int" name="FOURORBIT">     0</i>
   <i name="AEXX">      0.00000000</i>
   <i name="HFALPHA">      0.00000000</i>
   <i name="MCALPHA">      0.00000000</i>
   <i name="ALDAX">      1.00000000</i>
   <i name="AGGAX">      1.00000000</i>
   <i name="ALDAC">      1.00000000</i>
   <i name="AGGAC">      1.00000000</i>
   <i type="int" name="NKREDX">     1</i>
   <i type="int" name="NKREDY">     1</i>
   <i type="int" name="NKREDZ">     1</i>
   <i type="logical" name="SHIFTRED"> F  </i>
   <i type="logical" name="ODDONLY"> F  </i>
   <i type="logical" name="EVENONLY"> F  </i>
   <i type="int" name="LMAXFOCK">     0</i>
   <i type="int" name="NMAXFOCKAE">     0</i>
   <i type="logical" name="LFOCKAEDFT"> F  </i>
   <i name="HFSCREEN">      0.00000000</i>
   <i name="HFSCREENC">      0.00000000</i>
   <i type="int" name="NBANDSGWLOW">     0</i>
  </separator>
  <separator name="vdW DFT" >
   <i type="logical" name="LUSE_VDW"> F  </i>
   <i type="int" name="IVDW_NL">     1</i>
   <i type="logical" name="LSPIN_VDW"> F  </i>
   <i name="Zab_VDW">     -0.84910000</i>
   <i name="PARAM1">      0.12340000</i>
   <i name="PARAM2">      1.00000000</i>
   <i name="PARAM3">      0.00000000</i>
  </separator>
  <separator name="model GW" >
   <i type="int" name="MODEL_GW">     0</i>
   <i name="MODEL_EPS0">     26.88406576</i>
   <i name="MODEL_ALPHA">      1.00000000</i>
  </separator>
  <separator name="linear response parameters" >
   <i type="logical" name="LEPSILON"> F  </i>
   <i type="logical" name="LRPA"> F  </i>
   <i type="logical" name="LNABLA"> F  </i>
   <i type="logical" name="LVEL"> F  </i>
   <i name="CSHIFT">      0.10000000</i>
   <i name="OMEGAMAX">     -1.00000000</i>
   <i name="DEG_THRESHOLD">      0.00200000</i>
   <i name="RTIME">     -0.10000000</i>
   <i name="WPLASMAI">      0.00000000</i>
   <v name="DFIELD">      0.00000000      0.00000000      0.00000000</v>
   <v name="WPLASMA">      0.00000000      0.00000000      0.00000000      0.00000000      0.00000000      0.00000000      0.00000000      0.00000000      0.00000000</v>
  </separator>
  <separator name="orbital magnetization" >
   <i type="logical" name="NUCIND"> F  </i>
   <v name="MAGPOS">      0.00000000      0.00000000      0.00000000</v>
   <i type="logical" name="LNICSALL"> T  </i>
   <i type="logical" name="ORBITALMAG"> F  </i>
   <i type="logical" name="LMAGBLOCH"> F  </i>
   <i type="logical" name="LCHIMAG"> F  </i>
   <i type="logical" name="LGAUGE"> T  </i>
   <i type="int" name="MAGATOM">     0</i>
   <v name="MAGDIPOL">      0.00000000      0.00000000      0.00000000</v>
   <v name="AVECCONST">      0.00000000      0.00000000      0.00000000</v>
  </separator>
  <separator name="response functions" >
   <i type="logical" name="LALL_IN_ONE"> F  </i>
   <i type="int" name="IALL_IN_ONE">    -1</i>
   <i type="int" name="NBANDS_WAVE">    -1</i>
   <i type="logical" name="LFINITE_TEMPERATURE"> F  </i>
   <i type="logical" name="LADDER"> F  </i>
   <i type="logical" name="LRPAFORCE"> F  </i>
   <i type="logical" name="LFXC"> F  </i>
   <i type="logical" name="LHARTREE"> T  </i>
   <i type="int" name="IBSE">     0</i>
   <v type="int" name="KPOINT">    -1     0     0     0</v>
   <i type="logical" name="LTCTC"> F  </i>
   <i type="logical" name="LTCTE"> F  </i>
   <i type="logical" name="LTETE"> F  </i>
   <i type="logical" name="LTRIPLET"> F  </i>
   <i type="logical" name="LFXCEPS"> F  </i>
   <i type="logical" name="LFXHEG"> F  </i>
   <i type="int" name="NATURALO">     2</i>
   <i type="logical" name="LHOLEGF"> F  </i>
   <i type="logical" name="L2ORDER"> F  </i>
   <i type="logical" name="LDMP1"> F  </i>
   <i type="logical" name="LMP2LT"> F  </i>
   <i type="logical" name="LSMP2LT"> F  </i>
   <i type="logical" name="LGWLF"> F  </i>
   <i name="ENCUTGW">     -1.60000002</i>
   <i name="ENCUTGWSOFT">     -1.60000002</i>
   <i name="ENCUTLF">     -1.00000000</i>
   <i type="logical" name="LESF_SPLINES"> F  </i>
   <i type="int" name="LMAXMP2">    -1</i>
   <i name="SCISSOR">      0.00000000</i>
   <i type="int" name="NOMEGA">     0</i>
   <i type="int" name="NOMEGAR">     0</i>
   <i type="int" name="NBANDSGW">    -1</i>
   <i type="int" name="NBANDSO">    -1</i>
   <i type="int" name="NBANDSV">    -1</i>
   <i type="int" name="NELMGW">     1</i>
   <i type="int" name="NELMHF">     1</i>
   <i type="int" name="DIM">     3</i>
   <i type="int" name="IESPILON">     4</i>
   <i type="int" name="ANTIRES">     0</i>
   <i name="OMEGAMAX">    -30.00000000</i>
   <i name="OMEGAMIN">    -30.00000000</i>
   <i name="OMEGATL">   -200.00000000</i>
   <i type="int" name="OMEGAGRID">     0</i>
   <i name="CSHIFT">     -0.10000000</i>
   <i type="logical" name="LSELFENERGY"> F  </i>
   <i type="logical" name="LSPECTRAL"> F  </i>
   <i type="logical" name="LSPECTRALGW"> F  </i>
   <i type="logical" name="LSINGLES"> F  </i>
   <i type="logical" name="LFERMIGW"> F  </i>
   <i type="logical" name="ODDONLYGW"> F  </i>
   <i type="logical" name="EVENONLYGW"> F  </i>
   <i type="int" name="NKREDLFX">     1</i>
   <i type="int" name="NKREDLFY">     1</i>
   <i type="int" name="NKREDLFZ">     1</i>
   <i type="int" name="MAXMEM">  2800</i>
   <i type="int" name="TELESCOPE">     0</i>
   <i type="int" name="NTAUPAR">    -1</i>
   <i type="int" name="NOMEGAPAR">    -1</i>
   <i name="DAMP_NEWTON">      0.80000001</i>
   <i name="LAMBDA">      1.00000000</i>
  </separator>
  <separator name="External order field" >
   <i name="OFIELD_KAPPA">      0.00000000</i>
   <v name="OFIELD_K">      0.00000000      0.00000000      0.00000000</v>
   <i name="OFIELD_Q6_NEAR">      0.00000000</i>
   <i name="OFIELD_Q6_FAR">      0.00000000</i>
   <i name="OFIELD_A">      0.00000000</i>
  </separator>
  <separator name="optional k-points parameters" >
   <i type="int" name="KPOINTS_OPT_MODE">     1</i>
   <i type="logical" name="LKPOINTS_OPT"> F  </i>
  </separator>
 </parameters>
 <atominfo>
  <atoms>       2 </atoms>
  <types>       1 </types>
  <array name="atoms" >
   <dimension dim="1">ion</dimension>
   <field type="string">element</field>
   <field type="int">atomtype</field>
   <set>
    <rc><c>I </c><c>   1</c></rc>
    <rc><c>I </c><c>   1</c></rc>
   </set>
  </array>
  <array name="atomtypes" >
   <dimension dim="1">type</dimension>
   <field type="int">atomspertype</field>
   <field type="string">element</field>
   <field>mass</field>
   <field>valence</field>
   <field type="string">pseudopotential</field>
   <set>
    <rc><c>   2</c><c>I </c><c>    126.90400000</c><c>      7.00000000</c><c>  PAW_PBE I 08Apr2002                   </c></rc>
   </set>
  </array>
 </atominfo>
 <structure name="initialpos" >
  <crystal>
   <varray name="basis" >
    <v>       2.88042739       0.00000000       0.00000000 </v>
    <v>       0.00000000       4.19670192       0.00000000 </v>
    <v>       0.00000000       0.00000000       7.41324987 </v>
   </varray>
   <i name="volume">     89.61355253 </i>
   <varray name="rec_basis" >
    <v>       0.34717070      -0.00000000       0.00000000 </v>
    <v>       0.00000000       0.23828235       0.00000000 </v>
    <v>      -0.00000000      -0.00000000       0.13489360 </v>
   </varray>
  </crystal>
  <varray name="positions" >
   <v>       0.00000000       0.50000000       0.00000000 </v>
   <v>       0.50000000       0.00000000       0.50000000 </v>
  </varray>
 </structure>
 <calculation>
  <scstep>
   <time name="dav">    0.17    0.16</time>
   <time name="total">    0.28    0.30</time>
   <energy>
    <i name="alphaZ">      5.94073768 </i>
    <i name="ewald">   -550.10885230 </i>
    <i name="hartreedc">    -34.27644758 </i>
    <i name="XCdc">    -26.72413516 </i>
    <i name="pawpsdc">  95547.29795592 </i>
    <i name="pawaedc"> -95492.95272480 </i>
    <i name="eentropy">      0.00796722 </i>
    <i name="bandstr">    -93.47264601 </i>
    <i name="atom">    631.69207087 </i>
    <i name="e_fr_energy">    -12.59607416 </i>
    <i name="e_wo_entrp">    -12.60404138 </i>
    <i name="e_0_energy">    -12.59872990 </i>
   </energy>
  </scstep>
  <structure>
   <crystal>
    <varray name="basis" >
     <v>       2.88042739       0.00000000       0.00000000 </v>
     <v>       0.00000000       4.19670192       0.00000000 </v>
     <v>       0.00000000       0.00000000       7.41324987 </v>
    </varray>
    <i name="volume">     89.61355253 </i>
    <varray name="rec_basis" >
     <v>       0.34717070      -0.00000000       0.00000000 </v>
     <v>       0.00000000       0.23828235       0.00000000 </v>
     <v>      -0.00000000      -0.00000000       0.13489360 </v>
    </varray>
   </crystal>
   <varray name="positions" >
    <v>       0.00000000       0.50000000       0.00000000 </v>
    <v>       0.50000000       0.00000000       0.50000000 </v>
   </varray>
  </structure>
  <varray name="forces" >
   <v>       0.00000000      -0.00000000       0.00000000 </v>
   <v>      -0.00000000       0.00000000      -0.00000000 </v>
  </varray>
  <varray name="stress" >
   <v>     566.07974053       0.00000000       0.00000000 </v>
   <v>       0.00000000     971.45041525       0.00000000 </v>
   <v>       0.00000000       0.00000000    1046.84285390 </v>
  </varray>
  <energy>
   <i name="e_fr_energy">    -12.59607416 </i>
   <i name="e_wo_entrp">    -12.60404138 </i>
   <i name="e_0_energy">    -12.59872990 </i>
  </energy>
  <time name="totalsc">    0.58    0.52</time>
  <eigenvalues>
   <array>
    <dimension dim="1">band</dimension>
    <dimension dim="2">kpoint</dimension>
    <dimension dim="3">spin</dimension>
    <field>eigene</field>
    <field>occ</field>
    <set>
     <set comment="spin 1">
      <set comment="kpoint 1">
       <r>  -15.9552    1.0000 </r>
       <r>  -15.7650    1.0000 </r>
       <r>   -4.0693    1.0000 </r>
       <r>   -3.3232    1.0000 </r>
       <r>   -3.0453    1.0000 </r>
       <r>   -2.9315    1.0000 </r>
       <r>    1.2482   -0.0000 </r>
       <r>    1.7602   -0.0000 </r>
       <r>    5.9190    0.0000 </r>
       <r>    6.7512    0.0000 </r>
       <r>    8.8555    0.0000 </r>
       <r>    8.9944    0.0000 </r>
      </set>
      <set comment="kpoint 2">
       <r>  -15.4401    1.0000 </r>
       <r>  -15.2052    1.0000 </r>
       <r>   -3.5992    1.0000 </r>
       <r>   -2.8719    1.0000 </r>
       <r>   -2.7389    1.0000 </r>
       <r>   -2.5316    1.0000 </r>
       <r>   -1.8522    1.0276 </r>
       <r>   -1.3922   -0.0351 </r>
       <r>    7.0350    0.0000 </r>
       <r>    7.9749    0.0000 </r>
       <r>    9.6242    0.0000 </r>
       <r>   10.3791    0.0000 </r>
      </set>
      <set comment="kpoint 3">
       <r>  -14.2818    1.0000 </r>
       <r>  -14.2128    1.0000 </r>
       <r>   -6.6686    1.0000 </r>
       <r>   -6.5990    1.0000 </r>
       <r>   -2.1419    1.0013 </r>
       <r>   -1.6849    0.6568 </r>
       <r>   -1.0575   -0.0001 </r>
       <r>   -0.6978   -0.0000 </r>
       <r>    7.7472    0.0000 </r>
       <r>    8.0891    0.0000 </r>
       <r>    8.5752    0.0000 </r>
       <r>    9.8317    0.0000 </r>
      </set>
      <set comment="kpoint 4">
       <r>  -16.0539    1.0000 </r>
       <r>  -15.6120    1.0000 </r>
       <r>   -3.8770    1.0000 </r>
       <r>   -3.7432    1.0000 </r>
       <r>   -3.5079    1.0000 </r>
       <r>   -3.0669    1.0000 </r>
       <r>    1.4066   -0.0000 </r>
       <r>    1.6523   -0.0000 </r>
       <r>    7.8346    0.0000 </r>
       <r>    8.4500    0.0000 </r>
       <r>    8.9061    0.0000 </r>
       <r>    9.5193    0.0000 </r>
      </set>
      <set comment="kpoint 5">
       <r>  -15.3803    1.0000 </r>
       <r>  -15.0810    1.0000 </r>
       <r>   -3.3639    1.0000 </r>
       <r>   -3.3102    1.0000 </r>
       <r>   -3.1568    1.0000 </r>
       <r>   -2.6342    1.0000 </r>
       <r>   -2.2606    1.0001 </r>
       <r>   -1.7817    0.9501 </r>
       <r>    8.4302    0.0000 </r>
       <r>    8.7907    0.0000 </r>
       <r>    9.4641    0.0000 </r>
       <r>   10.6763    0.0000 </r>
      </set>
      <set comment="kpoint 6">
       <r>  -14.1459    1.0000 </r>
       <r>  -14.0004    1.0000 </r>
       <r>   -6.7346    1.0000 </r>
       <r>   -6.4252    1.0000 </r>
       <r>   -2.3418    1.0000 </r>
       <r>   -2.1362    1.0015 </r>
       <r>   -1.9891    1.0181 </r>
       <r>   -1.3499   -0.0283 </r>
       <r>    6.9207    0.0000 </r>
       <r>    7.3362    0.0000 </r>
       <r>    7.6401    0.0000 </r>
       <r>   10.9080    0.0000 </r>
      </set>
      <set comment="kpoint 7">
       <r>  -16.1162    1.0000 </r>
       <r>  -15.9357    1.0000 </r>
       <r>   -3.5977    1.0000 </r>
       <r>   -3.4151    1.0000 </r>
       <r>   -2.9052    1.0000 </r>
       <r>   -2.5628    1.0000 </r>
       <r>    1.2852   -0.0000 </r>
       <r>    1.6118   -0.0000 </r>
       <r>    6.7042    0.0000 </r>
       <r>    7.1491    0.0000 </r>
       <r>    8.4072    0.0000 </r>
       <r>    8.9406    0.0000 </r>
      </set>
      <set comment="kpoint 8">
       <r>  -15.5242    1.0000 </r>
       <r>  -15.3846    1.0000 </r>
       <r>   -3.1178    1.0000 </r>
       <r>   -2.9892    1.0000 </r>
       <r>   -2.7662    1.0000 </r>
       <r>   -2.7103    1.0000 </r>
       <r>   -2.5824    1.0000 </r>
       <r>   -2.5236    1.0000 </r>
       <r>    7.6323    0.0000 </r>
       <r>    7.7962    0.0000 </r>
       <r>    9.5137    0.0000 </r>
       <r>   10.2324    0.0000 </r>
      </set>
      <set comment="kpoint 9">
       <r>  -14.1066    1.0000 </r>
       <r>  -13.9495    1.0000 </r>
       <r>   -6.7366    1.0000 </r>
       <r>   -6.6341    1.0000 </r>
       <r>   -2.0036    1.0151 </r>
       <r>   -1.8859    1.0353 </r>
       <r>   -1.6149    0.3657 </r>
       <r>   -1.1173   -0.0006 </r>
       <r>    7.2390    0.0000 </r>
       <r>    7.8104    0.0000 </r>
       <r>    8.9238    0.0000 </r>
       <r>    9.7486    0.0000 </r>
      </set>
      <set comment="kpoint 10">
       <r>  -15.8945    1.0000 </r>
       <r>  -15.6333    1.0000 </r>
       <r>   -3.9222    1.0000 </r>
       <r>   -3.6523    1.0000 </r>
       <r>   -3.2495    1.0000 </r>
       <r>   -3.0949    1.0000 </r>
       <r>    1.5576   -0.0000 </r>
       <r>    1.7390   -0.0000 </r>
       <r>    7.0566    0.0000 </r>
       <r>    7.1456    0.0000 </r>
       <r>    8.6602    0.0000 </r>
       <r>    9.5707    0.0000 </r>
      </set>
      <set comment="kpoint 11">
       <r>  -15.5385    1.0000 </r>
       <r>  -15.4060    1.0000 </r>
       <r>   -3.5494    1.0000 </r>
       <r>   -3.4774    1.0000 </r>
       <r>   -2.8997    1.0000 </r>
       <r>   -2.8691    1.0000 </r>
       <r>   -2.5064    1.0000 </r>
       <r>   -2.2725    1.0000 </r>
       <r>    7.7437    0.0000 </r>
       <r>    7.8594    0.0000 </r>
       <r>   10.2770    0.0000 </r>
       <r>   10.9882    0.0000 </r>
      </set>
      <set comment="kpoint 12">
       <r>  -14.2302    1.0000 </r>
       <r>  -14.0492    1.0000 </r>
       <r>   -6.5443    1.0000 </r>
       <r>   -6.4802    1.0000 </r>
       <r>   -2.4014    1.0000 </r>
       <r>   -2.1929    1.0004 </r>
       <r>   -1.9084    1.0345 </r>
       <r>   -1.2578   -0.0095 </r>
       <r>    7.0535    0.0000 </r>
       <r>    7.1920    0.0000 </r>
       <r>    7.7074    0.0000 </r>
       <r>    9.3232    0.0000 </r>
      </set>
     </set>
    </set>
   </array>
  </eigenvalues>
  <separator name="orbital magnetization" >
   <v name="MAGDIPOLOUT">      0.00000000      0.00000000      0.00000000</v>
  </separator>
  <dos>
   <i name="efermi">     -1.64711841 </i>
   <total>
    <array>
     <dimension dim="1">gridpoints</dimension>
     <dimension dim="2">spin</dimension>
     <field>energy</field>
     <field>total</field>
     <field>integrated</field>
     <set>
      <set comment="spin 1">
       <r>   -18.1162     0.0000     0.0000 </r>
       <r>   -18.0126     0.0000     0.0000 </r>
       <r>   -17.9089     0.0000     0.0000 </r>
       <r>   -17.8052    -0.0000    -0.0000 </r>
       <r>   -17.7015    -0.0000    -0.0000 </r>
       <r>   -17.5978    -0.0000    -0.0000 </r>
       <r>   -17.4942    -0.0000    -0.0000 </r>
       <r>   -17.3905    -0.0000    -0.0000 </r>
       <r>   -17.2868    -0.0000    -0.0000 </r>
       <r>   -17.1831    -0.0000    -0.0000 </r>
       <r>   -17.0794    -0.0000    -0.0000 </r>
       <r>   -16.9757    -0.0000    -0.0000 </r>
       <r>   -16.8721    -0.0000    -0.0000 </r>
       <r>   -16.7684    -0.0000    -0.0000 </r>
       <r>   -16.6647    -0.0003    -0.0000 </r>
       <r>   -16.5610    -0.0034    -0.0004 </r>
       <r>   -16.4573    -0.0193    -0.0024 </r>
       <r>   -16.3537    -0.0480    -0.0074 </r>
       <r>   -16.2500     0.0196    -0.0053 </r>
       <r>   -16.1463     0.4009     0.0362 </r>
       <r>   -16.0426     1.0362     0.1437 </r>
       <r>   -15.9389     1.4198     0.2909 </r>
       <r>   -15.8353     1.2131     0.4167 </r>
       <r>   -15.7316     0.9878     0.5191 </r>
       <r>   -15.6279     1.7337     0.6988 </r>
       <r>   -15.5242     3.3002     1.0410 </r>
       <r>   -15.4205     4.3396     1.4909 </r>
       <r>   -15.3168     3.7025     1.8748 </r>
       <r>   -15.2132     2.1527     2.0980 </r>
       <r>   -15.1095     1.3881     2.2419 </r>
       <r>   -15.0058     1.1018     2.3562 </r>
       <r>   -14.9021     0.4946     2.4075 </r>
       <r>   -14.7984     0.0168     2.4092 </r>
       <r>   -14.6948    -0.0800     2.4009 </r>
       <r>   -14.5911    -0.1016     2.3904 </r>
       <r>   -14.4874    -0.1503     2.3748 </r>
       <r>   -14.3837     0.2330     2.3989 </r>
       <r>   -14.2800     1.6505     2.5701 </r>
       <r>   -14.1763     3.5339     2.9365 </r>
       <r>   -14.0727     4.4541     3.3983 </r>
       <r>   -13.9690     3.7520     3.7873 </r>
       <r>   -13.8653     1.9278     3.9872 </r>
       <r>   -13.7616     0.3749     4.0260 </r>
       <r>   -13.6579    -0.1340     4.0121 </r>
       <r>   -13.5543    -0.0927     4.0025 </r>
       <r>   -13.4506    -0.0216     4.0003 </r>
       <r>   -13.3469    -0.0026     4.0000 </r>
       <r>   -13.2432    -0.0002     4.0000 </r>
       <r>   -13.1395    -0.0000     4.0000 </r>
       <r>   -13.0359    -0.0000     4.0000 </r>
       <r>   -12.9322    -0.0000     4.0000 </r>
       <r>   -12.8285    -0.0000     4.0000 </r>
       <r>   -12.7248    -0.0000     4.0000 </r>
       <r>   -12.6211     0.0000     4.0000 </r>
       <r>   -12.5174     0.0000     4.0000 </r>
       <r>   -12.4138     0.0000     4.0000 </r>
       <r>   -12.3101     0.0000     4.0000 </r>
       <r>   -12.2064     0.0000     4.0000 </r>
       <r>   -12.1027     0.0000     4.0000 </r>
       <r>   -11.9990     0.0000     4.0000 </r>
       <r>   -11.8954     0.0000     4.0000 </r>
       <r>   -11.7917     0.0000     4.0000 </r>
       <r>   -11.6880     0.0000     4.0000 </r>
       <r>   -11.5843     0.0000     4.0000 </r>
       <r>   -11.4806     0.0000     4.0000 </r>
       <r>   -11.3770     0.0000     4.0000 </r>
       <r>   -11.2733     0.0000     4.0000 </r>
       <r>   -11.1696     0.0000     4.0000 </r>
       <r>   -11.0659     0.0000     4.0000 </r>
       <r>   -10.9622     0.0000     4.0000 </r>
       <r>   -10.8585     0.0000     4.0000 </r>
       <r>   -10.7549     0.0000     4.0000 </r>
       <r>   -10.6512     0.0000     4.0000 </r>
       <r>   -10.5475     0.0000     4.0000 </r>
       <r>   -10.4438     0.0000     4.0000 </r>
       <r>   -10.3401     0.0000     4.0000 </r>
       <r>   -10.2365     0.0000     4.0000 </r>
       <r>   -10.1328     0.0000     4.0000 </r>
       <r>   -10.0291     0.0000     4.0000 </r>
       <r>    -9.9254     0.0000     4.0000 </r>
       <r>    -9.8217     0.0000     4.0000 </r>
       <r>    -9.7180     0.0000     4.0000 </r>
       <r>    -9.6144     0.0000     4.0000 </r>
       <r>    -9.5107     0.0000     4.0000 </r>
       <r>    -9.4070     0.0000     4.0000 </r>
       <r>    -9.3033     0.0000     4.0000 </r>
       <r>    -9.1996     0.0000     4.0000 </r>
       <r>    -9.0960     0.0000     4.0000 </r>
       <r>    -8.9923     0.0000     4.0000 </r>
       <r>    -8.8886     0.0000     4.0000 </r>
       <r>    -8.7849     0.0000     4.0000 </r>
       <r>    -8.6812     0.0000     4.0000 </r>
       <r>    -8.5776     0.0000     4.0000 </r>
       <r>    -8.4739     0.0000     4.0000 </r>
       <r>    -8.3702    -0.0000     4.0000 </r>
       <r>    -8.2665    -0.0000     4.0000 </r>
       <r>    -8.1628    -0.0000     4.0000 </r>
       <r>    -8.0591    -0.0000     4.0000 </r>
       <r>    -7.9555    -0.0000     4.0000 </r>
       <r>    -7.8518    -0.0000     4.0000 </r>
       <r>    -7.7481    -0.0000     4.0000 </r>
       <r>    -7.6444    -0.0000     4.0000 </r>
       <r>    -7.5407    -0.0000     4.0000 </r>
       <r>    -7.4371    -0.0000     4.0000 </r>
       <r>    -7.3334    -0.0004     4.0000 </r>
       <r>    -7.2297    -0.0052     3.9994 </r>
       <r>    -7.1260    -0.0368     3.9956 </r>
       <r>    -7.0223    -0.1205     3.9831 </r>
       <r>    -6.9186    -0.0513     3.9778 </r>
       <r>    -6.8150     0.7707     4.0577 </r>
       <r>    -6.7113     2.3950     4.3060 </r>
       <r>    -6.6076     3.7656     4.6964 </r>
       <r>    -6.5039     4.1111     5.1227 </r>
       <r>    -6.4002     3.2090     5.4554 </r>
       <r>    -6.2966     1.4555     5.6063 </r>
       <r>    -6.1929     0.1667     5.6236 </r>
       <r>    -6.0892    -0.1442     5.6086 </r>
       <r>    -5.9855    -0.0689     5.6015 </r>
       <r>    -5.8818    -0.0131     5.6001 </r>
       <r>    -5.7782    -0.0013     5.6000 </r>
       <r>    -5.6745    -0.0001     5.6000 </r>
       <r>    -5.5708    -0.0000     5.6000 </r>
       <r>    -5.4671    -0.0000     5.6000 </r>
       <r>    -5.3634    -0.0000     5.6000 </r>
       <r>    -5.2597    -0.0000     5.6000 </r>
       <r>    -5.1561    -0.0000     5.6000 </r>
       <r>    -5.0524    -0.0000     5.6000 </r>
       <r>    -4.9487    -0.0000     5.6000 </r>
       <r>    -4.8450    -0.0000     5.6000 </r>
       <r>    -4.7413    -0.0000     5.6000 </r>
       <r>    -4.6377    -0.0001     5.6000 </r>
       <r>    -4.5340    -0.0015     5.5998 </r>
       <r>    -4.4303    -0.0091     5.5989 </r>
       <r>    -4.3266    -0.0257     5.5962 </r>
       <r>    -4.2229    -0.0118     5.5950 </r>
       <r>    -4.1193     0.1428     5.6098 </r>
       <r>    -4.0156     0.5331     5.6651 </r>
       <r>    -3.9119     1.0110     5.7699 </r>
       <r>    -3.8082     1.2607     5.9006 </r>
       <r>    -3.7045     1.6337     6.0700 </r>
       <r>    -3.6008     2.7460     6.3547 </r>
       <r>    -3.4972     3.9241     6.7616 </r>
       <r>    -3.3935     4.2193     7.1990 </r>
       <r>    -3.2898     3.8882     7.6022 </r>
       <r>    -3.1861     3.5609     7.9714 </r>
       <r>    -3.0824     3.5572     8.3402 </r>
       <r>    -2.9788     3.8788     8.7423 </r>
       <r>    -2.8751     4.2656     9.1846 </r>
       <r>    -2.7714     4.0835     9.6080 </r>
       <r>    -2.6677     3.7223     9.9939 </r>
       <r>    -2.5640     3.9812    10.4067 </r>
       <r>    -2.4603     4.2774    10.8501 </r>
       <r>    -2.3567     4.4619    11.3128 </r>
       <r>    -2.2530     4.9258    11.8235 </r>
       <r>    -2.1493     4.8329    12.3246 </r>
       <r>    -2.0456     4.0427    12.7437 </r>
       <r>    -1.9419     3.7571    13.1333 </r>
       <r>    -1.8383     3.7528    13.5224 </r>
       <r>    -1.7346     3.0132    13.8348 </r>
       <r>    -1.6309     1.8008    14.0215 </r>
       <r>    -1.5272     0.9659    14.1216 </r>
       <r>    -1.4235     1.2087    14.2470 </r>
       <r>    -1.3199     2.1517    14.4701 </r>
       <r>    -1.2162     2.4150    14.7204 </r>
       <r>    -1.1125     1.8373    14.9109 </r>
       <r>    -1.0088     1.0966    15.0246 </r>
       <r>    -0.9051     0.4339    15.0696 </r>
       <r>    -0.8014     0.2105    15.0914 </r>
       <r>    -0.6978     0.4311    15.1361 </r>
       <r>    -0.5941     0.4660    15.1845 </r>
       <r>    -0.4904     0.1870    15.2038 </r>
       <r>    -0.3867    -0.0047    15.2034 </r>
       <r>    -0.2830    -0.0243    15.2008 </r>
       <r>    -0.1794    -0.0071    15.2001 </r>
       <r>    -0.0757    -0.0009    15.2000 </r>
       <r>     0.0280    -0.0001    15.2000 </r>
       <r>     0.1317    -0.0000    15.2000 </r>
       <r>     0.2354    -0.0000    15.2000 </r>
       <r>     0.3391    -0.0000    15.2000 </r>
       <r>     0.4427    -0.0000    15.2000 </r>
       <r>     0.5464    -0.0000    15.2000 </r>
       <r>     0.6501    -0.0001    15.2000 </r>
       <r>     0.7538    -0.0011    15.1999 </r>
       <r>     0.8575    -0.0084    15.1990 </r>
       <r>     0.9611    -0.0289    15.1960 </r>
       <r>     1.0648    -0.0172    15.1942 </r>
       <r>     1.1685     0.1721    15.2121 </r>
       <r>     1.2722     0.5510    15.2692 </r>
       <r>     1.3759     0.8495    15.3573 </r>
       <r>     1.4795     1.0334    15.4644 </r>
       <r>     1.5832     1.3940    15.6089 </r>
       <r>     1.6869     1.7296    15.7883 </r>
       <r>     1.7906     1.4400    15.9376 </r>
       <r>     1.8943     0.6410    16.0040 </r>
       <r>     1.9980     0.0624    16.0105 </r>
       <r>     2.1016    -0.0659    16.0037 </r>
       <r>     2.2053    -0.0295    16.0006 </r>
       <r>     2.3090    -0.0054    16.0001 </r>
       <r>     2.4127    -0.0005    16.0000 </r>
       <r>     2.5164    -0.0000    16.0000 </r>
       <r>     2.6200    -0.0000    16.0000 </r>
       <r>     2.7237    -0.0000    16.0000 </r>
       <r>     2.8274    -0.0000    16.0000 </r>
       <r>     2.9311    -0.0000    16.0000 </r>
       <r>     3.0348    -0.0000    16.0000 </r>
       <r>     3.1384     0.0000    16.0000 </r>
       <r>     3.2421     0.0000    16.0000 </r>
       <r>     3.3458     0.0000    16.0000 </r>
       <r>     3.4495     0.0000    16.0000 </r>
       <r>     3.5532     0.0000    16.0000 </r>
       <r>     3.6569     0.0000    16.0000 </r>
       <r>     3.7605     0.0000    16.0000 </r>
       <r>     3.8642     0.0000    16.0000 </r>
       <r>     3.9679     0.0000    16.0000 </r>
       <r>     4.0716     0.0000    16.0000 </r>
       <r>     4.1753     0.0000    16.0000 </r>
       <r>     4.2789    -0.0000    16.0000 </r>
       <r>     4.3826    -0.0000    16.0000 </r>
       <r>     4.4863    -0.0000    16.0000 </r>
       <r>     4.5900    -0.0000    16.0000 </r>
       <r>     4.6937    -0.0000    16.0000 </r>
       <r>     4.7974    -0.0000    16.0000 </r>
       <r>     4.9010    -0.0000    16.0000 </r>
       <r>     5.0047    -0.0000    16.0000 </r>
       <r>     5.1084    -0.0000    16.0000 </r>
       <r>     5.2121    -0.0000    16.0000 </r>
       <r>     5.3158    -0.0001    16.0000 </r>
       <r>     5.4194    -0.0007    15.9999 </r>
       <r>     5.5231    -0.0047    15.9994 </r>
       <r>     5.6268    -0.0134    15.9980 </r>
       <r>     5.7305     0.0072    15.9988 </r>
       <r>     5.8342     0.1237    16.0116 </r>
       <r>     5.9378     0.2604    16.0386 </r>
       <r>     6.0415     0.2226    16.0617 </r>
       <r>     6.1452     0.0694    16.0689 </r>
       <r>     6.2489    -0.0108    16.0678 </r>
       <r>     6.3526    -0.0241    16.0653 </r>
       <r>     6.4563    -0.0346    16.0617 </r>
       <r>     6.5599     0.0116    16.0629 </r>
       <r>     6.6636     0.2103    16.0847 </r>
       <r>     6.7673     0.5252    16.1392 </r>
       <r>     6.8710     1.1034    16.2536 </r>
       <r>     6.9747     2.2703    16.4889 </r>
       <r>     7.0783     3.5659    16.8587 </r>
       <r>     7.1820     3.9766    17.2710 </r>
       <r>     7.2857     3.1963    17.6024 </r>
       <r>     7.3894     1.7381    17.7826 </r>
       <r>     7.4931     0.7294    17.8582 </r>
       <r>     7.5968     1.6411    18.0283 </r>
       <r>     7.7004     4.1734    18.4610 </r>
       <r>     7.8041     5.6291    19.0447 </r>
       <r>     7.9078     4.4536    19.5064 </r>
       <r>     8.0115     2.2449    19.7392 </r>
       <r>     8.1152     0.8340    19.8257 </r>
       <r>     8.2188     0.2835    19.8551 </r>
       <r>     8.3225     0.5897    19.9162 </r>
       <r>     8.4262     1.6268    20.0849 </r>
       <r>     8.5299     2.1165    20.3043 </r>
       <r>     8.6336     1.7424    20.4849 </r>
       <r>     8.7372     1.6816    20.6593 </r>
       <r>     8.8409     2.2470    20.8923 </r>
       <r>     8.9446     2.4014    21.1413 </r>
       <r>     9.0483     1.4763    21.2943 </r>
       <r>     9.1520     0.4165    21.3375 </r>
       <r>     9.2557     0.4388    21.3830 </r>
       <r>     9.3593     1.4553    21.5339 </r>
       <r>     9.4630     2.6325    21.8068 </r>
       <r>     9.5667     3.0701    22.1251 </r>
       <r>     9.6704     2.4140    22.3754 </r>
       <r>     9.7741     1.5209    22.5331 </r>
       <r>     9.8777     0.9008    22.6265 </r>
       <r>     9.9814     0.3073    22.6584 </r>
       <r>    10.0851     0.1014    22.6689 </r>
       <r>    10.1888     0.8083    22.7527 </r>
       <r>    10.2925     1.7727    22.9365 </r>
       <r>    10.3961     1.6897    23.1117 </r>
       <r>    10.4998     0.8373    23.1985 </r>
       <r>    10.6035     0.5838    23.2590 </r>
       <r>    10.7072     0.9440    23.3569 </r>
       <r>    10.8109     1.2693    23.4885 </r>
       <r>    10.9146     1.7797    23.6730 </r>
       <r>    11.0182     1.9721    23.8775 </r>
       <r>    11.1219     1.1378    23.9955 </r>
       <r>    11.2256     0.1962    24.0158 </r>
       <r>    11.3293    -0.0908    24.0064 </r>
       <r>    11.4330    -0.0505    24.0011 </r>
       <r>    11.5366    -0.0100    24.0001 </r>
       <r>    11.6403    -0.0010    24.0000 </r>
       <r>    11.7440    -0.0001    24.0000 </r>
       <r>    11.8477    -0.0000    24.0000 </r>
       <r>    11.9514    -0.0000    24.0000 </r>
       <r>    12.0551    -0.0000    24.0000 </r>
       <r>    12.1587    -0.0000    24.0000 </r>
       <r>    12.2624    -0.0000    24.0000 </r>
       <r>    12.3661     0.0000    24.0000 </r>
       <r>    12.4698     0.0000    24.0000 </r>
       <r>    12.5735     0.0000    24.0000 </r>
       <r>    12.6771     0.0000    24.0000 </r>
       <r>    12.7808     0.0000    24.0000 </r>
       <r>    12.8845     0.0000    24.0000 </r>
       <r>    12.9882     0.0000    24.0000 </r>
      </set>
     </set>
    </array>
   </total>
   <partial>
    <array>
     <dimension dim="1">gridpoints</dimension>
     <dimension dim="2">spin</dimension>
     <dimension dim="3">ion</dimension>
     <field>energy</field>
     <field>    s</field>
     <field>   py</field>
     <field>   pz</field>
     <field>   px</field>
     <field>  dxy</field>
     <field>  dyz</field>
     <field>  dz2</field>
     <field>  dxz</field>
     <field>x2-y2</field>
     <set>
      <set comment="ion 1">
       <set comment="spin 1">
        <r>   -18.1162     0.0000     0.0000     0.0000     0.0000     0.0000     0.0000     0.0000     0.0000     0.0000 </r>
        <r>   -18.0126     0.0000     0.0000     0.0000     0.0000     0.0000     0.0000     0.0000     0.0000     0.0000 </r>
        <r>   -17.9089     0.0000     0.0000     0.0000     0.0000     0.0000     0.0000     0.0000     0.0000     0.0000 </r>
        <r>   -17.8052    -0.0000    -0.0000    -0.0000    -0.0000    -0.0000    -0.0000    -0.0000    -0.0000    -0.0000 </r>
        <r>   -17.7015    -0.0000    -0.0000    -0.0000    -0.0000    -0.0000    -0.0000    -0.0000    -0.0000    -0.0000 </r>
        <r>   -17.5978    -0.0000    -0.0000    -0.0000    -0.0000    -0.0000    -0.0000    -0.0000    -0.0000    -0.0000 </r>
        <r>   -17.4942    -0.0000    -0.0000    -0.0000    -0.0000    -0.0000    -0.0000    -0.0000    -0.0000    -0.0000 </r>
        <r>   -17.3905    -0.0000    -0.0000    -0.0000    -0.0000    -0.0000    -0.0000    -0.0000    -0.0000    -0.0000 </r>
        <r>   -17.2868    -0.0000    -0.0000    -0.0000    -0.0000    -0.0000    -0.0000    -0.0000    -0.0000    -0.0000 </r>
        <r>   -17.1831    -0.0000    -0.0000    -0.0000    -0.0000    -0.0000    -0.0000    -0.0000    -0.0000    -0.0000 </r>
        <r>   -17.0794    -0.0000    -0.0000    -0.0000    -0.0000    -0.0000    -0.0000    -0.0000    -0.0000    -0.0000 </r>
        <r>   -16.9757    -0.0000    -0.0000    -0.0000    -0.0000    -0.0000    -0.0000    -0.0000    -0.0000    -0.0000 </r>
        <r>   -16.8721    -0.0000    -0.0000    -0.0000    -0.0000    -0.0000    -0.0000    -0.0000    -0.0000    -0.0000 </r>
        <r>   -16.7684    -0.0000    -0.0000    -0.0000    -0.0000    -0.0000    -0.0000    -0.0000    -0.0000    -0.0000 </r>
        <r>   -16.6647    -0.0001    -0.0000    -0.0000    -0.0000    -0.0000    -0.0000    -0.0000    -0.0000    -0.0000 </r>
        <r>   -16.5610    -0.0013    -0.0000    -0.0000    -0.0000    -0.0000    -0.0000    -0.0000    -0.0000    -0.0000 </r>
        <r>   -16.4573    -0.0074    -0.0000    -0.0000    -0.0000    -0.0000    -0.0000    -0.0000    -0.0000    -0.0000 </r>
        <r>   -16.3537    -0.0182    -0.0000    -0.0000    -0.0000    -0.0000    -0.0000    -0.0001    -0.0000    -0.0001 </r>
        <r>   -16.2500     0.0073    -0.0000     0.0000    -0.0000    -0.0000     0.0000    -0.0000    -0.0000     0.0000 </r>
        <r>   -16.1463     0.1514     0.0000     0.0000     0.0000     0.0000     0.0000     0.0004     0.0000     0.0005 </r>
        <r>   -16.0426     0.3960     0.0001     0.0001     0.0001     0.0001     0.0001     0.0012     0.0000     0.0017 </r>
        <r>   -15.9389     0.5537     0.0001     0.0001    -0.0001     0.0001     0.0001     0.0018     0.0001     0.0029 </r>
        <r>   -15.8353     0.4818     0.0002     0.0001    -0.0006     0.0002     0.0001     0.0018     0.0001     0.0030 </r>
        <r>   -15.7316     0.3878     0.0003     0.0002    -0.0006     0.0001     0.0001     0.0014     0.0001     0.0021 </r>
        <r>   -15.6279     0.6739     0.0006     0.0006     0.0038     0.0002     0.0001     0.0015     0.0002     0.0024 </r>
        <r>   -15.5242     1.3059     0.0007     0.0007     0.0149     0.0003     0.0002     0.0018     0.0003     0.0037 </r>
        <r>   -15.4205     1.7428     0.0005     0.0006     0.0252     0.0003     0.0003     0.0018     0.0005     0.0043 </r>
        <r>   -15.3168     1.4946     0.0003     0.0004     0.0234     0.0003     0.0003     0.0014     0.0004     0.0033 </r>
        <r>   -15.2132     0.8619     0.0002     0.0002     0.0135     0.0002     0.0003     0.0008     0.0002     0.0020 </r>
        <r>   -15.1095     0.5497     0.0001     0.0002     0.0083     0.0001     0.0002     0.0006     0.0001     0.0015 </r>
        <r>   -15.0058     0.4408     0.0000     0.0001     0.0067     0.0001     0.0001     0.0005     0.0000     0.0013 </r>
        <r>   -14.9021     0.2005     0.0000     0.0001     0.0031     0.0000     0.0000     0.0002    -0.0000     0.0006 </r>
        <r>   -14.7984     0.0075    -0.0000     0.0000     0.0001    -0.0000    -0.0000     0.0000    -0.0000     0.0000 </r>
        <r>   -14.6948    -0.0321    -0.0000    -0.0000    -0.0005    -0.0000    -0.0000    -0.0000    -0.0000    -0.0001 </r>
        <r>   -14.5911    -0.0408    -0.0000    -0.0000    -0.0006    -0.0000    -0.0000    -0.0000    -0.0000    -0.0000 </r>
        <r>   -14.4874    -0.0604    -0.0000    -0.0000    -0.0008    -0.0000    -0.0000    -0.0000    -0.0000    -0.0000 </r>
        <r>   -14.3837     0.0931     0.0000     0.0000     0.0014    -0.0000     0.0000    -0.0000     0.0000     0.0000 </r>
        <r>   -14.2800     0.6617     0.0001     0.0002     0.0091     0.0000     0.0002     0.0001     0.0001     0.0001 </r>
        <r>   -14.1763     1.4174     0.0004     0.0004     0.0194     0.0002     0.0006     0.0005     0.0002     0.0002 </r>
        <r>   -14.0727     1.7860     0.0007     0.0005     0.0266     0.0005     0.0011     0.0009     0.0004     0.0004 </r>
        <r>   -13.9690     1.5031     0.0008     0.0004     0.0253     0.0006     0.0012     0.0008     0.0005     0.0005 </r>
        <r>   -13.8653     0.7707     0.0005     0.0001     0.0141     0.0004     0.0007     0.0004     0.0003     0.0003 </r>
        <r>   -13.7616     0.1489     0.0001     0.0000     0.0029     0.0001     0.0002     0.0001     0.0001     0.0001 </r>
        <r>   -13.6579    -0.0539    -0.0000    -0.0000    -0.0010    -0.0000    -0.0000    -0.0000    -0.0000    -0.0000 </r>
        <r>   -13.5543    -0.0371    -0.0000    -0.0000    -0.0007    -0.0000    -0.0000    -0.0000    -0.0000    -0.0000 </r>
        <r>   -13.4506    -0.0086    -0.0000    -0.0000    -0.0001    -0.0000    -0.0000    -0.0000    -0.0000    -0.0000 </r>
        <r>   -13.3469    -0.0010    -0.0000    -0.0000    -0.0000    -0.0000    -0.0000    -0.0000    -0.0000    -0.0000 </r>
        <r>   -13.2432    -0.0001    -0.0000    -0.0000    -0.0000    -0.0000    -0.0000    -0.0000    -0.0000    -0.0000 </r>
        <r>   -13.1395    -0.0000    -0.0000    -0.0000    -0.0000    -0.0000    -0.0000    -0.0000    -0.0000    -0.0000 </r>
        <r>   -13.0359    -0.0000    -0.0000    -0.0000    -0.0000    -0.0000    -0.0000    -0.0000    -0.0000    -0.0000 </r>
        <r>   -12.9322    -0.0000    -0.0000    -0.0000    -0.0000    -0.0000    -0.0000    -0.0000    -0.0000    -0.0000 </r>
        <r>   -12.8285    -0.0000    -0.0000    -0.0000    -0.0000    -0.0000    -0.0000    -0.0000    -0.0000    -0.0000 </r>
        <r>   -12.7248    -0.0000    -0.0000    -0.0000    -0.0000    -0.0000    -0.0000    -0.0000    -0.0000    -0.0000 </r>
        <r>   -12.6211     0.0000     0.0000     0.0000     0.0000     0.0000     0.0000     0.0000     0.0000     0.0000 </r>
        <r>   -12.5174     0.0000     0.0000     0.0000     0.0000     0.0000     0.0000     0.0000     0.0000     0.0000 </r>
        <r>   -12.4138     0.0000     0.0000     0.0000     0.0000     0.0000     0.0000     0.0000     0.0000     0.0000 </r>
        <r>   -12.3101     0.0000     0.0000     0.0000     0.0000     0.0000     0.0000     0.0000     0.0000     0.0000 </r>
        <r>   -12.2064     0.0000     0.0000     0.0000     0.0000     0.0000     0.0000     0.0000     0.0000     0.0000 </r>
        <r>   -12.1027     0.0000     0.0000     0.0000     0.0000     0.0000     0.0000     0.0000     0.0000     0.0000 </r>
        <r>   -11.9990     0.0000     0.0000     0.0000     0.0000     0.0000     0.0000     0.0000     0.0000     0.0000 </r>
        <r>   -11.8954     0.0000     0.0000     0.0000     0.0000     0.0000     0.0000     0.0000     0.0000     0.0000 </r>
        <r>   -11.7917     0.0000     0.0000     0.0000     0.0000     0.0000     0.0000     0.0000     0.0000     0.0000 </r>
        <r>   -11.6880     0.0000     0.0000     0.0000     0.0000     0.0000     0.0000     0.0000     0.0000     0.0000 </r>
        <r>   -11.5843     0.0000     0.0000     0.0000     0.0000     0.0000     0.0000     0.0000     0.0000     0.0000 </r>
        <r>   -11.4806     0.0000     0.0000     0.0000     0.0000     0.0000     0.0000     0.0000     0.0000     0.0000 </r>
        <r>   -11.3770     0.0000     0.0000     0.0000     0.0000     0.0000     0.0000     0.0000     0.0000     0.0000 </r>
        <r>   -11.2733     0.0000     0.0000     0.0000     0.0000     0.0000     0.0000     0.0000     0.0000     0.0000 </r>
        <r>   -11.1696     0.0000     0.0000     0.0000     0.0000     0.0000     0.0000     0.0000     0.0000     0.0000 </r>
        <r>   -11.0659     0.0000     0.0000     0.0000     0.0000     0.0000     0.0000     0.0000     0.0000     0.0000 </r>
        <r>   -10.9622     0.0000     0.0000     0.0000     0.0000     0.0000     0.0000     0.0000     0.0000     0.0000 </r>
        <r>   -10.8585     0.0000     0.0000     0.0000     0.0000     0.0000     0.0000     0.0000     0.0000     0.0000 </r>
        <r>   -10.7549     0.0000     0.0000     0.0000     0.0000     0.0000     0.0000     0.0000     0.0000     0.0000 </r>
        <r>   -10.6512     0.0000     0.0000     0.0000     0.0000     0.0000     0.0000     0.0000     0.0000     0.0000 </r>
        <r>   -10.5475     0.0000     0.0000     0.0000     0.0000     0.0000     0.0000     0.0000     0.0000     0.0000 </r>
        <r>   -10.4438     0.0000     0.0000     0.0000     0.0000     0.0000     0.0000     0.0000     0.0000     0.0000 </r>
        <r>   -10.3401     0.0000     0.0000     0.0000     0.0000     0.0000     0.0000     0.0000     0.0000     0.0000 </r>
        <r>   -10.2365     0.0000     0.0000     0.0000     0.0000     0.0000     0.0000     0.0000     0.0000     0.0000 </r>
        <r>   -10.1328     0.0000     0.0000     0.0000     0.0000     0.0000     0.0000     0.0000     0.0000     0.0000 </r>
        <r>   -10.0291     0.0000     0.0000     0.0000     0.0000     0.0000     0.0000     0.0000     0.0000     0.0000 </r>
        <r>    -9.9254     0.0000     0.0000     0.0000     0.0000     0.0000     0.0000     0.0000     0.0000     0.0000 </r>
        <r>    -9.8217     0.0000     0.0000     0.0000     0.0000     0.0000     0.0000     0.0000     0.0000     0.0000 </r>
        <r>    -9.7180     0.0000     0.0000     0.0000     0.0000     0.0000     0.0000     0.0000     0.0000     0.0000 </r>
        <r>    -9.6144     0.0000     0.0000     0.0000     0.0000     0.0000     0.0000     0.0000     0.0000     0.0000 </r>
        <r>    -9.5107     0.0000     0.0000     0.0000     0.0000     0.0000     0.0000     0.0000     0.0000     0.0000 </r>
        <r>    -9.4070     0.0000     0.0000     0.0000     0.0000     0.0000     0.0000     0.0000     0.0000     0.0000 </r>
        <r>    -9.3033     0.0000     0.0000     0.0000     0.0000     0.0000     0.0000     0.0000     0.0000     0.0000 </r>
        <r>    -9.1996     0.0000     0.0000     0.0000     0.0000     0.0000     0.0000     0.0000     0.0000     0.0000 </r>
        <r>    -9.0960     0.0000     0.0000     0.0000     0.0000     0.0000     0.0000     0.0000     0.0000     0.0000 </r>
        <r>    -8.9923     0.0000     0.0000     0.0000     0.0000     0.0000     0.0000     0.0000     0.0000     0.0000 </r>
        <r>    -8.8886     0.0000     0.0000     0.0000     0.0000     0.0000     0.0000     0.0000     0.0000     0.0000 </r>
        <r>    -8.7849     0.0000     0.0000     0.0000     0.0000     0.0000     0.0000     0.0000     0.0000     0.0000 </r>
        <r>    -8.6812     0.0000     0.0000     0.0000     0.0000     0.0000     0.0000     0.0000     0.0000     0.0000 </r>
        <r>    -8.5776     0.0000     0.0000     0.0000     0.0000     0.0000     0.0000     0.0000     0.0000     0.0000 </r>
        <r>    -8.4739     0.0000     0.0000     0.0000     0.0000     0.0000     0.0000     0.0000     0.0000     0.0000 </r>
        <r>    -8.3702    -0.0000    -0.0000    -0.0000    -0.0000    -0.0000    -0.0000    -0.0000    -0.0000    -0.0000 </r>
        <r>    -8.2665    -0.0000    -0.0000    -0.0000    -0.0000    -0.0000    -0.0000    -0.0000    -0.0000    -0.0000 </r>
        <r>    -8.1628    -0.0000    -0.0000    -0.0000    -0.0000    -0.0000    -0.0000    -0.0000    -0.0000    -0.0000 </r>
        <r>    -8.0591    -0.0000    -0.0000    -0.0000    -0.0000    -0.0000    -0.0000    -0.0000    -0.0000    -0.0000 </r>
        <r>    -7.9555    -0.0000    -0.0000    -0.0000    -0.0000    -0.0000    -0.0000    -0.0000    -0.0000    -0.0000 </r>
        <r>    -7.8518    -0.0000    -0.0000    -0.0000    -0.0000    -0.0000    -0.0000    -0.0000    -0.0000    -0.0000 </r>
        <r>    -7.7481    -0.0000    -0.0000    -0.0000    -0.0000    -0.0000    -0.0000    -0.0000    -0.0000    -0.0000 </r>
        <r>    -7.6444    -0.0000    -0.0000    -0.0000    -0.0000    -0.0000    -0.0000    -0.0000    -0.0000    -0.0000 </r>
        <r>    -7.5407    -0.0000    -0.0000    -0.0000    -0.0000    -0.0000    -0.0000    -0.0000    -0.0000    -0.0000 </r>
        <r>    -7.4371    -0.0000    -0.0000    -0.0000    -0.0000    -0.0000    -0.0000    -0.0000    -0.0000    -0.0000 </r>
        <r>    -7.3334    -0.0000    -0.0000    -0.0000    -0.0001    -0.0000    -0.0000    -0.0000    -0.0000    -0.0000 </r>
        <r>    -7.2297    -0.0001    -0.0000    -0.0000    -0.0015    -0.0000    -0.0000    -0.0000    -0.0000    -0.0000 </r>
        <r>    -7.1260    -0.0004    -0.0000    -0.0000    -0.0106    -0.0000    -0.0000    -0.0000    -0.0000    -0.0001 </r>
        <r>    -7.0223    -0.0015    -0.0000    -0.0000    -0.0346    -0.0000    -0.0000    -0.0001    -0.0000    -0.0002 </r>
        <r>    -6.9186    -0.0007    -0.0000    -0.0001    -0.0140    -0.0000    -0.0000    -0.0001    -0.0000    -0.0001 </r>
        <r>    -6.8150     0.0089     0.0001     0.0001     0.2235     0.0000     0.0002     0.0005     0.0001     0.0011 </r>
        <r>    -6.7113     0.0286     0.0007     0.0009     0.6882     0.0002     0.0006     0.0016     0.0002     0.0040 </r>
        <r>    -6.6076     0.0474     0.0014     0.0020     1.0731     0.0004     0.0009     0.0026     0.0003     0.0075 </r>
        <r>    -6.5039     0.0561     0.0019     0.0024     1.1627     0.0007     0.0010     0.0030     0.0002     0.0100 </r>
        <r>    -6.4002     0.0477     0.0018     0.0019     0.9026     0.0007     0.0007     0.0028     0.0001     0.0085 </r>
        <r>    -6.2966     0.0236     0.0010     0.0009     0.4076     0.0004     0.0003     0.0017     0.0001     0.0037 </r>
        <r>    -6.1929     0.0035     0.0002     0.0001     0.0460     0.0001     0.0000     0.0004     0.0000     0.0003 </r>
        <r>    -6.0892    -0.0021    -0.0001    -0.0001    -0.0406    -0.0000    -0.0000    -0.0001    -0.0000    -0.0004 </r>
        <r>    -5.9855    -0.0011    -0.0001    -0.0000    -0.0193    -0.0000    -0.0000    -0.0001    -0.0000    -0.0002 </r>
        <r>    -5.8818    -0.0002    -0.0000    -0.0000    -0.0037    -0.0000    -0.0000    -0.0000    -0.0000    -0.0000 </r>
        <r>    -5.7782    -0.0000    -0.0000    -0.0000    -0.0004    -0.0000    -0.0000    -0.0000    -0.0000    -0.0000 </r>
        <r>    -5.6745    -0.0000    -0.0000    -0.0000    -0.0000    -0.0000    -0.0000    -0.0000    -0.0000    -0.0000 </r>
        <r>    -5.5708    -0.0000    -0.0000    -0.0000    -0.0000    -0.0000    -0.0000    -0.0000    -0.0000    -0.0000 </r>
        <r>    -5.4671    -0.0000    -0.0000    -0.0000    -0.0000    -0.0000    -0.0000    -0.0000    -0.0000    -0.0000 </r>
        <r>    -5.3634    -0.0000    -0.0000    -0.0000    -0.0000    -0.0000    -0.0000    -0.0000    -0.0000    -0.0000 </r>
        <r>    -5.2597    -0.0000    -0.0000    -0.0000    -0.0000    -0.0000    -0.0000    -0.0000    -0.0000    -0.0000 </r>
        <r>    -5.1561    -0.0000    -0.0000    -0.0000    -0.0000    -0.0000    -0.0000    -0.0000    -0.0000    -0.0000 </r>
        <r>    -5.0524    -0.0000    -0.0000    -0.0000    -0.0000    -0.0000    -0.0000    -0.0000    -0.0000    -0.0000 </r>
        <r>    -4.9487    -0.0000    -0.0000    -0.0000    -0.0000    -0.0000    -0.0000    -0.0000    -0.0000    -0.0000 </r>
        <r>    -4.8450    -0.0000    -0.0000    -0.0000    -0.0000    -0.0000    -0.0000    -0.0000    -0.0000    -0.0000 </r>
        <r>    -4.7413    -0.0000    -0.0000    -0.0000    -0.0000    -0.0000    -0.0000    -0.0000    -0.0000    -0.0000 </r>
        <r>    -4.6377    -0.0000    -0.0000    -0.0000    -0.0000    -0.0000    -0.0000    -0.0000    -0.0000    -0.0000 </r>
        <r>    -4.5340    -0.0000    -0.0000    -0.0004    -0.0000    -0.0000    -0.0000    -0.0000    -0.0000    -0.0000 </r>
        <r>    -4.4303    -0.0000    -0.0003    -0.0021    -0.0000    -0.0000    -0.0000    -0.0000    -0.0000    -0.0000 </r>
        <r>    -4.3266    -0.0000    -0.0025    -0.0044    -0.0000    -0.0000    -0.0000    -0.0000    -0.0000    -0.0000 </r>
        <r>    -4.2229    -0.0000    -0.0096     0.0061    -0.0000    -0.0000    -0.0000    -0.0000     0.0000    -0.0000 </r>
        <r>    -4.1193     0.0000    -0.0074     0.0452     0.0000     0.0000    -0.0000     0.0000     0.0000     0.0000 </r>
        <r>    -4.0156     0.0003     0.0581     0.0864     0.0000     0.0000     0.0001     0.0000     0.0001     0.0000 </r>
        <r>    -3.9119     0.0006     0.1852     0.0919     0.0000     0.0000     0.0002     0.0001     0.0001     0.0001 </r>
        <r>    -3.8082     0.0007     0.2421     0.1023    -0.0000    -0.0000     0.0002     0.0002     0.0002     0.0002 </r>
        <r>    -3.7045     0.0008     0.2396     0.2020     0.0003     0.0002     0.0002     0.0002     0.0007     0.0005 </r>
        <r>    -3.6008     0.0016     0.3801     0.3716     0.0017     0.0016     0.0004     0.0002     0.0016     0.0008 </r>
        <r>    -3.4972     0.0025     0.6608     0.4361     0.0040     0.0040     0.0006     0.0003     0.0021     0.0008 </r>
        <r>    -3.3935     0.0023     0.8774     0.3270     0.0064     0.0057     0.0007     0.0004     0.0015     0.0008 </r>
        <r>    -3.2898     0.0016     0.8445     0.2869     0.0083     0.0056     0.0005     0.0005     0.0009     0.0011 </r>
        <r>    -3.1861     0.0014     0.5109     0.5396     0.0069     0.0033     0.0004     0.0005     0.0016     0.0011 </r>
        <r>    -3.0824     0.0015     0.1941     0.8706     0.0010     0.0012     0.0004     0.0006     0.0029     0.0007 </r>
        <r>    -2.9788     0.0015     0.2396     0.9448     0.0006     0.0010     0.0004     0.0008     0.0037     0.0006 </r>
        <r>    -2.8751     0.0033     0.5185     0.7809     0.0349     0.0025     0.0004     0.0014     0.0037     0.0020 </r>
        <r>    -2.7714     0.0096     0.6332     0.5318     0.1296     0.0038     0.0004     0.0029     0.0033     0.0065 </r>
        <r>    -2.6677     0.0230     0.4771     0.3972     0.3033     0.0034     0.0004     0.0059     0.0035     0.0167 </r>
        <r>    -2.5640     0.0424     0.3191     0.3905     0.5345     0.0021     0.0005     0.0099     0.0039     0.0316 </r>
        <r>    -2.4603     0.0515     0.4154     0.2774     0.6379     0.0024     0.0005     0.0115     0.0030     0.0383 </r>
        <r>    -2.3567     0.0495     0.6532     0.1179     0.6196     0.0039     0.0006     0.0119     0.0020     0.0355 </r>
        <r>    -2.2530     0.0513     0.7112     0.1604     0.6589     0.0042     0.0013     0.0139     0.0023     0.0361 </r>
        <r>    -2.1493     0.0389     0.5690     0.4262     0.5036     0.0029     0.0019     0.0114     0.0037     0.0278 </r>
        <r>    -2.0456     0.0123     0.3971     0.7158     0.1553     0.0017     0.0016     0.0042     0.0048     0.0090 </r>
        <r>    -1.9419     0.0063     0.2676     0.8628     0.0650     0.0012     0.0013     0.0013     0.0048     0.0032 </r>
        <r>    -1.8383     0.0244     0.1827     0.7242     0.2815     0.0010     0.0012     0.0037     0.0037     0.0135 </r>
        <r>    -1.7346     0.0344     0.1739     0.3662     0.4091     0.0010     0.0010     0.0050     0.0018     0.0202 </r>
        <r>    -1.6309     0.0203     0.2306     0.1040     0.2445     0.0011     0.0006     0.0029     0.0004     0.0124 </r>
        <r>    -1.5272     0.0046     0.2200     0.0488     0.0498     0.0009     0.0003     0.0009     0.0001     0.0025 </r>
        <r>    -1.4235     0.0030     0.1597     0.2019     0.0149     0.0009     0.0007     0.0012     0.0007     0.0005 </r>
        <r>    -1.3199     0.0053     0.1648     0.4605     0.0353     0.0015     0.0018     0.0024     0.0017     0.0016 </r>
        <r>    -1.2162     0.0033     0.2194     0.5089     0.0231     0.0020     0.0026     0.0025     0.0022     0.0015 </r>
        <r>    -1.1125     0.0007     0.2778     0.3034     0.0032     0.0022     0.0023     0.0021     0.0018     0.0008 </r>
        <r>    -1.0088     0.0001     0.2465     0.1110    -0.0018     0.0016     0.0015     0.0014     0.0012     0.0004 </r>
        <r>    -0.9051     0.0001     0.1149     0.0277    -0.0008     0.0006     0.0007     0.0006     0.0006     0.0002 </r>
        <r>    -0.8014     0.0004     0.0643     0.0032    -0.0001     0.0001     0.0004     0.0001     0.0003     0.0000 </r>
        <r>    -0.6978     0.0008     0.1299     0.0070     0.0001     0.0001     0.0006     0.0001     0.0004    -0.0000 </r>
        <r>    -0.5941     0.0008     0.1375     0.0106     0.0002     0.0002     0.0006     0.0002     0.0004     0.0000 </r>
        <r>    -0.4904     0.0003     0.0548     0.0046     0.0001     0.0001     0.0002     0.0001     0.0002     0.0000 </r>
        <r>    -0.3867    -0.0000    -0.0014    -0.0002    -0.0000    -0.0000    -0.0000    -0.0000    -0.0000    -0.0000 </r>
        <r>    -0.2830    -0.0000    -0.0071    -0.0006    -0.0000    -0.0000    -0.0000    -0.0000    -0.0000    -0.0000 </r>
        <r>    -0.1794    -0.0000    -0.0021    -0.0002    -0.0000    -0.0000    -0.0000    -0.0000    -0.0000    -0.0000 </r>
        <r>    -0.0757    -0.0000    -0.0003    -0.0000    -0.0000    -0.0000    -0.0000    -0.0000    -0.0000    -0.0000 </r>
        <r>     0.0280    -0.0000    -0.0000    -0.0000    -0.0000    -0.0000    -0.0000    -0.0000    -0.0000    -0.0000 </r>
        <r>     0.1317    -0.0000    -0.0000    -0.0000    -0.0000    -0.0000    -0.0000    -0.0000    -0.0000    -0.0000 </r>
        <r>     0.2354    -0.0000    -0.0000    -0.0000    -0.0000    -0.0000    -0.0000    -0.0000    -0.0000    -0.0000 </r>
        <r>     0.3391    -0.0000    -0.0000    -0.0000    -0.0000    -0.0000    -0.0000    -0.0000    -0.0000    -0.0000 </r>
        <r>     0.4427    -0.0000    -0.0000    -0.0000    -0.0000    -0.0000    -0.0000    -0.0000    -0.0000    -0.0000 </r>
        <r>     0.5464    -0.0000    -0.0000    -0.0000    -0.0000    -0.0000    -0.0000    -0.0000    -0.0000    -0.0000 </r>
        <r>     0.6501    -0.0000    -0.0000    -0.0000    -0.0000    -0.0000    -0.0000    -0.0000    -0.0000    -0.0000 </r>
        <r>     0.7538    -0.0000    -0.0000    -0.0000    -0.0005    -0.0000    -0.0000    -0.0000    -0.0000    -0.0000 </r>
        <r>     0.8575    -0.0000    -0.0000    -0.0000    -0.0033    -0.0000    -0.0000    -0.0000    -0.0000    -0.0000 </r>
        <r>     0.9611    -0.0000    -0.0000    -0.0000    -0.0115    -0.0000    -0.0000    -0.0000    -0.0000    -0.0000 </r>
        <r>     1.0648    -0.0000    -0.0000    -0.0000    -0.0070    -0.0000    -0.0000    -0.0000    -0.0000     0.0000 </r>
        <r>     1.1685     0.0000     0.0000    -0.0000     0.0682     0.0001     0.0001     0.0001    -0.0000     0.0001 </r>
        <r>     1.2722     0.0001     0.0001     0.0000     0.2196     0.0002     0.0002     0.0003     0.0001     0.0003 </r>
        <r>     1.3759     0.0002     0.0002     0.0002     0.3399     0.0004     0.0003     0.0005     0.0003     0.0002 </r>
        <r>     1.4795     0.0003     0.0003     0.0002     0.4137     0.0004     0.0003     0.0007     0.0006     0.0004 </r>
        <r>     1.5832     0.0007     0.0004     0.0003     0.5544     0.0007     0.0006     0.0015     0.0009     0.0013 </r>
        <r>     1.6869     0.0012     0.0005     0.0003     0.6832     0.0009     0.0008     0.0026     0.0011     0.0028 </r>
        <r>     1.7906     0.0010     0.0004     0.0002     0.5663     0.0007     0.0007     0.0027     0.0009     0.0029 </r>
        <r>     1.8943     0.0004     0.0001     0.0001     0.2513     0.0003     0.0004     0.0015     0.0004     0.0015 </r>
        <r>     1.9980     0.0000     0.0000    -0.0000     0.0242     0.0000     0.0001     0.0002     0.0001     0.0002 </r>
        <r>     2.1016    -0.0000    -0.0000    -0.0000    -0.0259    -0.0000    -0.0000    -0.0001    -0.0000    -0.0001 </r>
        <r>     2.2053    -0.0000    -0.0000    -0.0000    -0.0116    -0.0000    -0.0000    -0.0001    -0.0000    -0.0001 </r>
        <r>     2.3090    -0.0000    -0.0000    -0.0000    -0.0021    -0.0000    -0.0000    -0.0000    -0.0000    -0.0000 </r>
        <r>     2.4127    -0.0000    -0.0000    -0.0000    -0.0002    -0.0000    -0.0000    -0.0000    -0.0000    -0.0000 </r>
        <r>     2.5164    -0.0000    -0.0000    -0.0000    -0.0000    -0.0000    -0.0000    -0.0000    -0.0000    -0.0000 </r>
        <r>     2.6200    -0.0000    -0.0000    -0.0000    -0.0000    -0.0000    -0.0000    -0.0000    -0.0000    -0.0000 </r>
        <r>     2.7237    -0.0000    -0.0000    -0.0000    -0.0000    -0.0000    -0.0000    -0.0000    -0.0000    -0.0000 </r>
        <r>     2.8274    -0.0000    -0.0000    -0.0000    -0.0000    -0.0000    -0.0000    -0.0000    -0.0000    -0.0000 </r>
        <r>     2.9311    -0.0000    -0.0000    -0.0000    -0.0000    -0.0000    -0.0000    -0.0000    -0.0000    -0.0000 </r>
        <r>     3.0348    -0.0000    -0.0000    -0.0000    -0.0000    -0.0000    -0.0000    -0.0000    -0.0000    -0.0000 </r>
        <r>     3.1384     0.0000     0.0000     0.0000     0.0000     0.0000     0.0000     0.0000     0.0000     0.0000 </r>
        <r>     3.2421     0.0000     0.0000     0.0000     0.0000     0.0000     0.0000     0.0000     0.0000     0.0000 </r>
        <r>     3.3458     0.0000     0.0000     0.0000     0.0000     0.0000     0.0000     0.0000     0.0000     0.0000 </r>
        <r>     3.4495     0.0000     0.0000     0.0000     0.0000     0.0000     0.0000     0.0000     0.0000     0.0000 </r>
        <r>     3.5532     0.0000     0.0000     0.0000     0.0000     0.0000     0.0000     0.0000     0.0000     0.0000 </r>
        <r>     3.6569     0.0000     0.0000     0.0000     0.0000     0.0000     0.0000     0.0000     0.0000     0.0000 </r>
        <r>     3.7605     0.0000     0.0000     0.0000     0.0000     0.0000     0.0000     0.0000     0.0000     0.0000 </r>
        <r>     3.8642     0.0000     0.0000     0.0000     0.0000     0.0000     0.0000     0.0000     0.0000     0.0000 </r>
        <r>     3.9679     0.0000     0.0000     0.0000     0.0000     0.0000     0.0000     0.0000     0.0000     0.0000 </r>
        <r>     4.0716     0.0000     0.0000     0.0000     0.0000     0.0000     0.0000     0.0000     0.0000     0.0000 </r>
        <r>     4.1753     0.0000     0.0000     0.0000     0.0000     0.0000     0.0000     0.0000     0.0000     0.0000 </r>
        <r>     4.2789    -0.0000    -0.0000    -0.0000    -0.0000    -0.0000    -0.0000    -0.0000    -0.0000    -0.0000 </r>
        <r>     4.3826    -0.0000    -0.0000    -0.0000    -0.0000    -0.0000    -0.0000    -0.0000    -0.0000    -0.0000 </r>
        <r>     4.4863    -0.0000    -0.0000    -0.0000    -0.0000    -0.0000    -0.0000    -0.0000    -0.0000    -0.0000 </r>
        <r>     4.5900    -0.0000    -0.0000    -0.0000    -0.0000    -0.0000    -0.0000    -0.0000    -0.0000    -0.0000 </r>
        <r>     4.6937    -0.0000    -0.0000    -0.0000    -0.0000    -0.0000    -0.0000    -0.0000    -0.0000    -0.0000 </r>
        <r>     4.7974    -0.0000    -0.0000    -0.0000    -0.0000    -0.0000    -0.0000    -0.0000    -0.0000    -0.0000 </r>
        <r>     4.9010    -0.0000    -0.0000    -0.0000    -0.0000    -0.0000    -0.0000    -0.0000    -0.0000    -0.0000 </r>
        <r>     5.0047    -0.0000    -0.0000    -0.0000    -0.0000    -0.0000    -0.0000    -0.0000    -0.0000    -0.0000 </r>
        <r>     5.1084    -0.0000    -0.0000    -0.0000    -0.0000    -0.0000    -0.0000    -0.0000    -0.0000    -0.0000 </r>
        <r>     5.2121    -0.0000    -0.0000    -0.0000    -0.0000    -0.0000    -0.0000    -0.0000    -0.0000    -0.0000 </r>
        <r>     5.3158    -0.0000    -0.0000    -0.0000    -0.0000    -0.0000    -0.0000    -0.0000    -0.0000    -0.0000 </r>
        <r>     5.4194    -0.0000    -0.0000    -0.0000    -0.0000    -0.0000    -0.0000    -0.0000    -0.0000    -0.0001 </r>
        <r>     5.5231    -0.0001    -0.0000    -0.0000    -0.0000    -0.0000    -0.0000    -0.0001    -0.0000    -0.0003 </r>
        <r>     5.6268    -0.0002    -0.0000    -0.0000    -0.0000    -0.0000    -0.0000    -0.0002    -0.0000    -0.0010 </r>
        <r>     5.7305     0.0001     0.0000     0.0000     0.0000     0.0000     0.0000     0.0001     0.0000     0.0005 </r>
        <r>     5.8342     0.0019     0.0000     0.0000     0.0000     0.0000     0.0000     0.0016     0.0000     0.0091 </r>
        <r>     5.9378     0.0041     0.0000     0.0000     0.0000     0.0000     0.0000     0.0033     0.0000     0.0192 </r>
        <r>     6.0415     0.0035     0.0000     0.0000     0.0000     0.0000     0.0000     0.0029     0.0000     0.0164 </r>
        <r>     6.1452     0.0011     0.0000    -0.0000     0.0000     0.0000     0.0000     0.0009     0.0000     0.0051 </r>
        <r>     6.2489    -0.0001    -0.0000    -0.0000    -0.0000    -0.0000    -0.0000    -0.0001    -0.0000    -0.0009 </r>
        <r>     6.3526    -0.0002    -0.0000    -0.0001    -0.0000    -0.0001    -0.0000    -0.0003    -0.0000    -0.0022 </r>
        <r>     6.4563    -0.0002    -0.0001    -0.0001    -0.0000    -0.0009    -0.0000    -0.0007    -0.0000    -0.0027 </r>
        <r>     6.5599     0.0002    -0.0003     0.0004    -0.0000    -0.0051    -0.0001     0.0000    -0.0002     0.0060 </r>
        <r>     6.6636     0.0016    -0.0006     0.0017    -0.0000    -0.0115    -0.0006     0.0044    -0.0008     0.0318 </r>
        <r>     6.7673     0.0029     0.0008     0.0022     0.0001     0.0109    -0.0022     0.0094    -0.0013     0.0485 </r>
        <r>     6.8710     0.0047     0.0065     0.0015     0.0006     0.1104    -0.0001     0.0131    -0.0014     0.0337 </r>
        <r>     6.9747     0.0100     0.0139     0.0032     0.0013     0.2477     0.0211     0.0310     0.0038     0.0306 </r>
        <r>     7.0783     0.0151     0.0161     0.0089     0.0016     0.3063     0.0592     0.0628     0.0456     0.0714 </r>
        <r>     7.1820     0.0126     0.0118     0.0137     0.0011     0.2510     0.0749     0.0684     0.1576     0.0997 </r>
        <r>     7.2857     0.0059     0.0056     0.0121     0.0005     0.1403     0.0519     0.0360     0.2675     0.0639 </r>
        <r>     7.3894     0.0013     0.0012     0.0054     0.0002     0.0438     0.0204     0.0032     0.2382     0.0111 </r>
        <r>     7.4931     0.0006    -0.0004     0.0041     0.0001     0.0009     0.0031    -0.0054     0.1322     0.0014 </r>
        <r>     7.5968     0.0056     0.0015     0.0188     0.0003     0.0083     0.0230     0.0167     0.1874     0.0358 </r>
        <r>     7.7004     0.0153     0.0077     0.0382     0.0009     0.0397     0.0953     0.0764     0.3758     0.0865 </r>
        <r>     7.8041     0.0222     0.0145     0.0381     0.0017     0.0592     0.1629     0.1424     0.3915     0.1262 </r>
        <r>     7.9078     0.0192     0.0142     0.0205     0.0020     0.0496     0.1474     0.1472     0.2011     0.1258 </r>
        <r>     8.0115     0.0098     0.0069     0.0078     0.0013     0.0398     0.0698     0.0845     0.0592     0.0809 </r>
        <r>     8.1152     0.0028     0.0005     0.0055     0.0005     0.0437     0.0085     0.0194     0.0406     0.0300 </r>
        <r>     8.2188     0.0005    -0.0005     0.0043     0.0002     0.0309    -0.0062    -0.0002     0.0352     0.0028 </r>
        <r>     8.3225     0.0037     0.0068     0.0037     0.0004     0.0077     0.0313     0.0400     0.0113     0.0055 </r>
        <r>     8.4262     0.0110     0.0194     0.0065     0.0012     0.0142     0.1010     0.1022     0.0019     0.0307 </r>
        <r>     8.5299     0.0150     0.0224     0.0073     0.0018     0.0535     0.1166     0.1002     0.0063     0.0707 </r>
        <r>     8.6336     0.0137     0.0155     0.0053     0.0015     0.0757     0.0761     0.0437     0.0104     0.1222 </r>
        <r>     8.7372     0.0122     0.0140     0.0076     0.0010     0.0597     0.0877     0.0268     0.0120     0.1471 </r>
        <r>     8.8409     0.0146     0.0178     0.0138     0.0009     0.0605     0.1402     0.0714     0.0114     0.1316 </r>
        <r>     8.9446     0.0178     0.0164     0.0152     0.0009     0.0806     0.1377     0.1071     0.0062     0.1070 </r>
        <r>     9.0483     0.0134     0.0082     0.0086     0.0005     0.0610     0.0794     0.0745    -0.0008     0.0644 </r>
        <r>     9.1520     0.0042     0.0008     0.0008     0.0002     0.0183     0.0263     0.0221     0.0031     0.0134 </r>
        <r>     9.2557     0.0001    -0.0005    -0.0007     0.0007     0.0044     0.0365     0.0196     0.0315    -0.0117 </r>
        <r>     9.3593     0.0016     0.0049     0.0104     0.0014     0.0125     0.1227     0.0543     0.0648     0.0092 </r>
        <r>     9.4630     0.0063     0.0162     0.0300     0.0015     0.0158     0.2130     0.0979     0.0641     0.0981 </r>
        <r>     9.5667     0.0109     0.0234     0.0348     0.0014     0.0117     0.2029     0.1443     0.0363     0.1970 </r>
        <r>     9.6704     0.0108     0.0166     0.0180     0.0013     0.0111     0.1029     0.1604     0.0129     0.1966 </r>
        <r>     9.7741     0.0079     0.0051     0.0027     0.0010     0.0198     0.0264     0.1337     0.0040     0.1291 </r>
        <r>     9.8777     0.0052    -0.0001    -0.0012     0.0006     0.0236     0.0063     0.0834     0.0017     0.0722 </r>
        <r>     9.9814     0.0021    -0.0016    -0.0009     0.0001     0.0101     0.0019     0.0283    -0.0013     0.0259 </r>
        <r>    10.0851     0.0007     0.0009     0.0009     0.0002     0.0077     0.0053     0.0047    -0.0014     0.0030 </r>
        <r>    10.1888     0.0031     0.0150     0.0059     0.0010     0.0555     0.0312     0.0302     0.0167     0.0259 </r>
        <r>    10.2925     0.0060     0.0316     0.0105     0.0017     0.1123     0.0622     0.0628     0.0575     0.0627 </r>
        <r>    10.3961     0.0048     0.0268     0.0089     0.0014     0.0924     0.0632     0.0498     0.0838     0.0562 </r>
        <r>    10.4998     0.0015     0.0098     0.0037     0.0006     0.0339     0.0347     0.0208     0.0618     0.0239 </r>
        <r>    10.6035    -0.0001     0.0077     0.0003     0.0002     0.0327     0.0075     0.0370     0.0289     0.0245 </r>
        <r>    10.7072     0.0004     0.0150    -0.0006     0.0004     0.0661     0.0017     0.0774     0.0198     0.0446 </r>
        <r>    10.8109     0.0030     0.0135     0.0020     0.0011     0.0718     0.0211     0.1018     0.0305     0.0388 </r>
        <r>    10.9146     0.0067     0.0073     0.0126     0.0020     0.0679     0.0572     0.1256     0.0830     0.0233 </r>
        <r>    11.0182     0.0067     0.0049     0.0229     0.0018     0.0626     0.0682     0.1181     0.1378     0.0206 </r>
        <r>    11.1219     0.0028     0.0030     0.0177     0.0007     0.0339     0.0372     0.0564     0.1040     0.0147 </r>
        <r>    11.2256     0.0001     0.0006     0.0047    -0.0000     0.0051     0.0055     0.0053     0.0271     0.0037 </r>
        <r>    11.3293    -0.0003    -0.0003    -0.0009    -0.0001    -0.0030    -0.0031    -0.0057    -0.0058    -0.0010 </r>
        <r>    11.4330    -0.0001    -0.0002    -0.0008    -0.0000    -0.0015    -0.0016    -0.0024    -0.0048    -0.0007 </r>
        <r>    11.5366    -0.0000    -0.0000    -0.0002    -0.0000    -0.0003    -0.0003    -0.0004    -0.0010    -0.0002 </r>
        <r>    11.6403    -0.0000    -0.0000    -0.0000    -0.0000    -0.0000    -0.0000    -0.0000    -0.0001    -0.0000 </r>
        <r>    11.7440    -0.0000    -0.0000    -0.0000    -0.0000    -0.0000    -0.0000    -0.0000    -0.0000    -0.0000 </r>
        <r>    11.8477    -0.0000    -0.0000    -0.0000    -0.0000    -0.0000    -0.0000    -0.0000    -0.0000    -0.0000 </r>
        <r>    11.9514    -0.0000    -0.0000    -0.0000    -0.0000    -0.0000    -0.0000    -0.0000    -0.0000    -0.0000 </r>
        <r>    12.0551    -0.0000    -0.0000    -0.0000    -0.0000    -0.0000    -0.0000    -0.0000    -0.0000    -0.0000 </r>
        <r>    12.1587    -0.0000    -0.0000    -0.0000    -0.0000    -0.0000    -0.0000    -0.0000    -0.0000    -0.0000 </r>
        <r>    12.2624    -0.0000    -0.0000    -0.0000    -0.0000    -0.0000    -0.0000    -0.0000    -0.0000    -0.0000 </r>
        <r>    12.3661     0.0000     0.0000     0.0000     0.0000     0.0000     0.0000     0.0000     0.0000     0.0000 </r>
        <r>    12.4698     0.0000     0.0000     0.0000     0.0000     0.0000     0.0000     0.0000     0.0000     0.0000 </r>
        <r>    12.5735     0.0000     0.0000     0.0000     0.0000     0.0000     0.0000     0.0000     0.0000     0.0000 </r>
        <r>    12.6771     0.0000     0.0000     0.0000     0.0000     0.0000     0.0000     0.0000     0.0000     0.0000 </r>
        <r>    12.7808     0.0000     0.0000     0.0000     0.0000     0.0000     0.0000     0.0000     0.0000     0.0000 </r>
        <r>    12.8845     0.0000     0.0000     0.0000     0.0000     0.0000     0.0000     0.0000     0.0000     0.0000 </r>
[...]
        <r>  0.0008  0.0158  0.0005  0.0003  0.0893  0.0022  0.0734  0.0276  0.0097 </r>
       </set>
      </set>
      <set comment="kpoint 6">
       <set comment="band 1">
        <r>  0.2054  0.0001  0.0001  0.0025  0.0001  0.0005  0.0001  0.0000  0.0001 </r>
        <r>  0.5949  0.0000  0.0002  0.0064  0.0000  0.0001  0.0000  0.0000  0.0001 </r>
       </set>
       <set comment="band 2">
        <r>  0.6010  0.0003  0.0001  0.0154  0.0003  0.0002  0.0000  0.0000  0.0002 </r>
        <r>  0.2035  0.0001  0.0000  0.0034  0.0003  0.0003  0.0000  0.0002  0.0001 </r>
       </set>
       <set comment="band 3">
        <r>  0.0036  0.0002  0.0000  0.0872  0.0001  0.0002  0.0001  0.0000  0.0003 </r>
        <r>  0.0198  0.0002  0.0001  0.4936  0.0000  0.0000  0.0008  0.0000  0.0032 </r>
       </set>
       <set comment="band 4">
        <r>  0.0302  0.0019  0.0010  0.4750  0.0004  0.0003  0.0013  0.0000  0.0027 </r>
        <r>  0.0064  0.0004  0.0004  0.0833  0.0003  0.0000  0.0023  0.0001  0.0001 </r>
       </set>
       <set comment="band 5">
        <r>  0.0007  0.5296  0.0064  0.0007  0.0019  0.0000  0.0001  0.0001  0.0000 </r>
        <r>  0.0002  0.0892  0.0088  0.0002  0.0006  0.0000  0.0001  0.0001  0.0001 </r>
       </set>
       <set comment="band 6">
        <r>  0.0002  0.0349  0.3303  0.0002  0.0002  0.0000  0.0002  0.0030  0.0001 </r>
        <r>  0.0002  0.1922  0.0809  0.0000  0.0007  0.0005  0.0001  0.0009  0.0002 </r>
       </set>
       <set comment="band 7">
        <r>  0.0001  0.0560  0.0400  0.0005  0.0002  0.0002  0.0000  0.0002  0.0001 </r>
        <r>  0.0002  0.1992  0.3348  0.0001  0.0012  0.0001  0.0001  0.0025  0.0002 </r>
       </set>
       <set comment="band 8">
        <r>  0.0006  0.0122  0.2723  0.0007  0.0008  0.0002  0.0003  0.0000  0.0001 </r>
        <r>  0.0002  0.1186  0.2173  0.0003  0.0014  0.0012  0.0010  0.0013  0.0001 </r>
       </set>
       <set comment="band 9">
        <r>  0.0011  0.0139  0.0001  0.0010  0.2384  0.0000  0.0031  0.0006  0.0013 </r>
        <r>  0.0027  0.0037  0.0003  0.0004  0.0632  0.0009  0.0036  0.0118  0.0011 </r>
       </set>
       <set comment="band 10">
        <r>  0.0005  0.0000  0.0034  0.0000  0.0019  0.0206  0.0001  0.2204  0.0001 </r>
        <r>  0.0008  0.0010  0.0007  0.0003  0.0181  0.0099  0.0002  0.0857  0.0004 </r>
       </set>
       <set comment="band 11">
        <r>  0.0004  0.0005  0.0141  0.0002  0.0060  0.0213  0.0142  0.1210  0.0005 </r>
        <r>  0.0010  0.0013  0.0206  0.0000  0.0123  0.0016  0.0018  0.1807  0.0033 </r>
       </set>
       <set comment="band 12">
        <r>  0.0058  0.0014  0.0005  0.0015  0.0225  0.0209  0.1262  0.0109  0.0054 </r>
        <r>  0.0062  0.0026  0.0005  0.0022  0.0519  0.0597  0.0526  0.0050  0.0007 </r>
       </set>
      </set>
      <set comment="kpoint 7">
       <set comment="band 1">
        <r>  0.0856  0.0000  0.0002  0.0000  0.0000  0.0001  0.0002  0.0000  0.0004 </r>
        <r>  0.7057  0.0000  0.0001  0.0000  0.0000  0.0001  0.0014  0.0000  0.0033 </r>
       </set>
       <set comment="band 2">
        <r>  0.7112  0.0002  0.0001  0.0001  0.0000  0.0000  0.0012  0.0002  0.0042 </r>
        <r>  0.0848  0.0001  0.0000  0.0001  0.0001  0.0001  0.0003  0.0000  0.0005 </r>
       </set>
       <set comment="band 3">
        <r>  0.0009  0.0130  0.5405  0.0001  0.0001  0.0001  0.0001  0.0001  0.0000 </r>
        <r>  0.0019  0.0094  0.0158  0.0000  0.0002  0.0002  0.0000  0.0000  0.0000 </r>
       </set>
       <set comment="band 4">
        <r>  0.0015  0.0227  0.0223  0.0001  0.0001  0.0002  0.0001  0.0003  0.0003 </r>
        <r>  0.0002  0.0009  0.5375  0.0003  0.0000  0.0000  0.0002  0.0001  0.0000 </r>
       </set>
       <set comment="band 5">
        <r>  0.0002  0.0927  0.0090  0.0001  0.0001  0.0012  0.0007  0.0000  0.0003 </r>
        <r>  0.0004  0.4990  0.0037  0.0009  0.0005  0.0002  0.0001  0.0005  0.0008 </r>
       </set>
       <set comment="band 6">
        <r>  0.0009  0.4697  0.0028  0.0004  0.0003  0.0002  0.0003  0.0002  0.0013 </r>
        <r>  0.0006  0.0873  0.0249  0.0019  0.0002  0.0019  0.0006  0.0013  0.0008 </r>
       </set>
       <set comment="band 7">
        <r>  0.0001  0.0001  0.0000  0.7135  0.0001  0.0009  0.0001  0.0002  0.0001 </r>
        <r>  0.0001  0.0000  0.0001  0.0911  0.0007  0.0002  0.0009  0.0001  0.0001 </r>
       </set>
       <set comment="band 8">
        <r>  0.0010  0.0008  0.0003  0.0875  0.0003  0.0000  0.0031  0.0000  0.0008 </r>
        <r>  0.0008  0.0009  0.0002  0.6962  0.0005  0.0002  0.0020  0.0014  0.0001 </r>
       </set>
       <set comment="band 9">
        <r>  0.0012  0.0001  0.0153  0.0001  0.0001  0.0006  0.0011  0.0001  0.0519 </r>
        <r>  0.0108  0.0002  0.0033  0.0000  0.0000  0.0010  0.0002  0.0001  0.2152 </r>
       </set>
       <set comment="band 10">
        <r>  0.0018  0.0024  0.0004  0.0003  0.0005  0.0009  0.0016  0.0001  0.4039 </r>
        <r>  0.0014  0.0003  0.0077  0.0005  0.0003  0.0025  0.0027  0.0021  0.0893 </r>
       </set>
       <set comment="band 11">
        <r>  0.0114  0.0005  0.0064  0.0002  0.0001  0.0040  0.2818  0.0004  0.0027 </r>
        <r>  0.0022  0.0003  0.0045  0.0002  0.0005  0.0018  0.1475  0.0007  0.0119 </r>
       </set>
       <set comment="band 12">
        <r>  0.0229  0.0002  0.0320  0.0008  0.0003  0.0113  0.0994  0.0019  0.0654 </r>
        <r>  0.0127  0.0008  0.0013  0.0001  0.0059  0.0010  0.0982  0.0030  0.0203 </r>
       </set>
      </set>
      <set comment="kpoint 8">
       <set comment="band 1">
        <r>  0.0209  0.0001  0.0003  0.0005  0.0001  0.0000  0.0001  0.0000  0.0000 </r>
        <r>  0.7847  0.0001  0.0000  0.0110  0.0000  0.0004  0.0008  0.0003  0.0019 </r>
       </set>
       <set comment="band 2">
        <r>  0.7923  0.0000  0.0000  0.0136  0.0000  0.0001  0.0009  0.0000  0.0017 </r>
        <r>  0.0197  0.0000  0.0003  0.0002  0.0000  0.0001  0.0000  0.0001  0.0002 </r>
       </set>
       <set comment="band 3">
        <r>  0.0025  0.0054  0.2863  0.0086  0.0000  0.0000  0.0000  0.0015  0.0003 </r>
        <r>  0.0018  0.0007  0.3038  0.0009  0.0000  0.0000  0.0001  0.0015  0.0002 </r>
       </set>
       <set comment="band 4">
        <r>  0.0018  0.0089  0.3005  0.0009  0.0002  0.0000  0.0002  0.0017  0.0001 </r>
        <r>  0.0003  0.0038  0.2790  0.0024  0.0001  0.0001  0.0000  0.0022  0.0003 </r>
       </set>
       <set comment="band 5">
        <r>  0.0001  0.3276  0.0001  0.0010  0.0028  0.0000  0.0000  0.0000  0.0001 </r>
        <r>  0.0028  0.2794  0.0024  0.0401  0.0025  0.0003  0.0005  0.0000  0.0038 </r>
       </set>
       <set comment="band 6">
        <r>  0.0001  0.2559  0.0019  0.0005  0.0025  0.0000  0.0001  0.0001  0.0001 </r>
        <r>  0.0019  0.3573  0.0071  0.0242  0.0023  0.0000  0.0004  0.0000  0.0011 </r>
       </set>
       <set comment="band 7">
        <r>  0.0425  0.0089  0.0018  0.5615  0.0000  0.0001  0.0103  0.0000  0.0329 </r>
        <r>  0.0035  0.0007  0.0063  0.0408  0.0000  0.0001  0.0003  0.0001  0.0019 </r>
       </set>
       <set comment="band 8">
        <r>  0.0037  0.0441  0.0001  0.0475  0.0003  0.0000  0.0019  0.0000  0.0026 </r>
        <r>  0.0406  0.0105  0.0085  0.5098  0.0001  0.0000  0.0115  0.0000  0.0293 </r>
       </set>
       <set comment="band 9">
        <r>  0.0182  0.0001  0.0018  0.0003  0.0019  0.0007  0.0293  0.0004  0.1467 </r>
        <r>  0.0037  0.0001  0.0070  0.0009  0.0006  0.0063  0.0041  0.0007  0.0491 </r>
       </set>
       <set comment="band 10">
        <r>  0.0052  0.0003  0.0045  0.0001  0.0030  0.0052  0.0089  0.0055  0.0247 </r>
        <r>  0.0165  0.0001  0.0024  0.0000  0.0015  0.0012  0.0518  0.0028  0.1039 </r>
       </set>
       <set comment="band 11">
        <r>  0.0089  0.0007  0.0042  0.0008  0.0085  0.0247  0.1736  0.0169  0.0004 </r>
        <r>  0.0009  0.0017  0.0371  0.0002  0.0071  0.0625  0.0054  0.0085  0.0047 </r>
       </set>
       <set comment="band 12">
        <r>  0.0001  0.0002  0.0242  0.0018  0.0261  0.1033  0.0109  0.0171  0.0051 </r>
        <r>  0.0105  0.0083  0.0016  0.0029  0.0485  0.0515  0.0689  0.0167  0.0067 </r>
       </set>
      </set>
      <set comment="kpoint 9">
       <set comment="band 1">
        <r>  0.5491  0.0002  0.0002  0.0070  0.0000  0.0001  0.0003  0.0001  0.0001 </r>
        <r>  0.2468  0.0001  0.0001  0.0037  0.0001  0.0002  0.0012  0.0000  0.0000 </r>
       </set>
       <set comment="band 2">
        <r>  0.2426  0.0002  0.0001  0.0037  0.0001  0.0007  0.0002  0.0002  0.0001 </r>
        <r>  0.5449  0.0004  0.0001  0.0059  0.0000  0.0004  0.0004  0.0004  0.0003 </r>
       </set>
       <set comment="band 3">
        <r>  0.0229  0.0000  0.0000  0.5202  0.0001  0.0001  0.0009  0.0000  0.0026 </r>
        <r>  0.0022  0.0001  0.0005  0.0584  0.0000  0.0008  0.0001  0.0004  0.0004 </r>
       </set>
       <set comment="band 4">
        <r>  0.0023  0.0001  0.0023  0.0583  0.0002  0.0001  0.0005  0.0001  0.0001 </r>
        <r>  0.0240  0.0015  0.0006  0.5083  0.0003  0.0002  0.0002  0.0000  0.0041 </r>
       </set>
       <set comment="band 5">
        <r>  0.0001  0.0033  0.0896  0.0011  0.0001  0.0007  0.0004  0.0002  0.0001 </r>
        <r>  0.0000  0.0697  0.4915  0.0004  0.0003  0.0002  0.0001  0.0020  0.0002 </r>
       </set>
       <set comment="band 6">
        <r>  0.0001  0.0653  0.4784  0.0001  0.0001  0.0002  0.0003  0.0024  0.0001 </r>
        <r>  0.0001  0.0045  0.0872  0.0026  0.0000  0.0017  0.0001  0.0004  0.0004 </r>
       </set>
       <set comment="band 7">
        <r>  0.0003  0.6060  0.0490  0.0000  0.0022  0.0002  0.0001  0.0004  0.0001 </r>
        <r>  0.0003  0.0121  0.0082  0.0004  0.0000  0.0006  0.0005  0.0001  0.0000 </r>
       </set>
       <set comment="band 8">
        <r>  0.0000  0.0082  0.0085  0.0005  0.0006  0.0003  0.0015  0.0005  0.0008 </r>
        <r>  0.0002  0.5863  0.0525  0.0011  0.0054  0.0001  0.0024  0.0001  0.0001 </r>
       </set>
       <set comment="band 9">
        <r>  0.0063  0.0005  0.0047  0.0001  0.0048  0.0005  0.0056  0.0881  0.0020 </r>
        <r>  0.0016  0.0001  0.0143  0.0000  0.0174  0.0034  0.0036  0.2146  0.0002 </r>
       </set>
       <set comment="band 10">
        <r>  0.0035  0.0001  0.0084  0.0001  0.0019  0.0017  0.0010  0.2118  0.0139 </r>
        <r>  0.0069  0.0054  0.0036  0.0002  0.1132  0.0015  0.0076  0.0321  0.0062 </r>
       </set>
       <set comment="band 11">
        <r>  0.0073  0.0040  0.0005  0.0010  0.1095  0.0051  0.0046  0.0006  0.0347 </r>
        <r>  0.0093  0.0071  0.0029  0.0005  0.1652  0.0119  0.0103  0.0029  0.0411 </r>
       </set>
       <set comment="band 12">
        <r>  0.0061  0.0003  0.0010  0.0002  0.0110  0.0005  0.1577  0.0044  0.1275 </r>
        <r>  0.0045  0.0004  0.0002  0.0012  0.0076  0.0058  0.0414  0.0042  0.0357 </r>
       </set>
      </set>
      <set comment="kpoint 10">
       <set comment="band 1">
        <r>  0.7743  0.0001  0.0000  0.0000  0.0000  0.0001  0.0027  0.0000  0.0061 </r>
        <r>  0.0367  0.0002  0.0000  0.0000  0.0001  0.0000  0.0002  0.0000  0.0003 </r>
       </set>
       <set comment="band 2">
        <r>  0.0359  0.0003  0.0007  0.0000  0.0000  0.0000  0.0002  0.0002  0.0004 </r>
        <r>  0.7487  0.0003  0.0005  0.0000  0.0000  0.0000  0.0016  0.0001  0.0014 </r>
       </set>
       <set comment="band 3">
        <r>  0.0006  0.2072  0.0935  0.0000  0.0001  0.0002  0.0002  0.0001  0.0000 </r>
        <r>  0.0013  0.1373  0.1025  0.0002  0.0003  0.0003  0.0001  0.0002  0.0000 </r>
       </set>
       <set comment="band 4">
        <r>  0.0005  0.1472  0.0471  0.0001  0.0001  0.0001  0.0001  0.0000  0.0016 </r>
        <r>  0.0016  0.2552  0.0552  0.0000  0.0002  0.0001  0.0000  0.0011  0.0003 </r>
       </set>
       <set comment="band 5">
        <r>  0.0001  0.1218  0.1121  0.0000  0.0003  0.0005  0.0002  0.0002  0.0001 </r>
        <r>  0.0009  0.0334  0.3357  0.0000  0.0000  0.0001  0.0001  0.0001  0.0000 </r>
       </set>
       <set comment="band 6">
        <r>  0.0000  0.0646  0.3309  0.0001  0.0002  0.0001  0.0009  0.0004  0.0003 </r>
        <r>  0.0002  0.1081  0.0924  0.0002  0.0001  0.0004  0.0010  0.0014  0.0001 </r>
       </set>
       <set comment="band 7">
        <r>  0.0002  0.0002  0.0001  0.0702  0.0000  0.0003  0.0006  0.0008  0.0011 </r>
        <r>  0.0001  0.0001  0.0000  0.7330  0.0003  0.0010  0.0006  0.0005  0.0005 </r>
       </set>
       <set comment="band 8">
        <r>  0.0003  0.0001  0.0000  0.7193  0.0000  0.0014  0.0017  0.0003  0.0027 </r>
        <r>  0.0002  0.0002  0.0000  0.0705  0.0003  0.0001  0.0010  0.0011  0.0019 </r>
       </set>
       <set comment="band 9">
        <r>  0.0041  0.0002  0.0042  0.0001  0.0002  0.0666  0.0478  0.0002  0.0026 </r>
        <r>  0.0032  0.0001  0.0038  0.0000  0.0001  0.0582  0.0506  0.0000  0.0138 </r>
       </set>
       <set comment="band 10">
        <r>  0.0025  0.0001  0.0038  0.0001  0.0000  0.0580  0.0588  0.0001  0.0222 </r>
        <r>  0.0008  0.0002  0.0042  0.0001  0.0000  0.0804  0.0635  0.0001  0.0297 </r>
       </set>
       <set comment="band 11">
        <r>  0.0037  0.0165  0.0002  0.0001  0.0002  0.0148  0.0120  0.0047  0.1231 </r>
        <r>  0.0233  0.0068  0.0025  0.0003  0.0018  0.0204  0.0141  0.0030  0.3234 </r>
       </set>
       <set comment="band 12">
        <r>  0.0020  0.0183  0.0020  0.0009  0.0002  0.0148  0.0303  0.0005  0.1524 </r>
        <r>  0.0183  0.0138  0.0033  0.0001  0.0005  0.0336  0.0906  0.0037  0.1410 </r>
       </set>
      </set>
      <set comment="kpoint 11">
       <set comment="band 1">
        <r>  0.0084  0.0000  0.0001  0.0002  0.0000  0.0000  0.0000  0.0000  0.0001 </r>
        <r>  0.8113  0.0001  0.0001  0.0136  0.0000  0.0000  0.0007  0.0000  0.0018 </r>
       </set>
       <set comment="band 2">
        <r>  0.8092  0.0001  0.0001  0.0113  0.0000  0.0000  0.0008  0.0000  0.0018 </r>
        <r>  0.0070  0.0000  0.0001  0.0003  0.0000  0.0000  0.0001  0.0001  0.0000 </r>
       </set>
       <set comment="band 3">
        <r>  0.0006  0.3966  0.0121  0.0005  0.0033  0.0000  0.0000  0.0005  0.0001 </r>
        <r>  0.0002  0.0526  0.1113  0.0029  0.0002  0.0000  0.0000  0.0004  0.0004 </r>
       </set>
       <set comment="band 4">
        <r>  0.0001  0.0480  0.1405  0.0006  0.0002  0.0001  0.0001  0.0010  0.0001 </r>
        <r>  0.0014  0.3668  0.0127  0.0027  0.0026  0.0000  0.0000  0.0000  0.0000 </r>
       </set>
       <set comment="band 5">
        <r>  0.0007  0.0516  0.3207  0.0074  0.0008  0.0000  0.0001  0.0012  0.0006 </r>
        <r>  0.0001  0.1128  0.1442  0.0007  0.0005  0.0000  0.0000  0.0006  0.0003 </r>
       </set>
       <set comment="band 6">
        <r>  0.0012  0.0893  0.1307  0.0237  0.0004  0.0000  0.0013  0.0013  0.0008 </r>
        <r>  0.0006  0.0468  0.3398  0.0040  0.0001  0.0001  0.0001  0.0019  0.0006 </r>
       </set>
       <set comment="band 7">
        <r>  0.0448  0.0008  0.0098  0.5529  0.0001  0.0000  0.0078  0.0003  0.0325 </r>
        <r>  0.0028  0.0084  0.0067  0.0296  0.0000  0.0000  0.0007  0.0000  0.0033 </r>
       </set>
       <set comment="band 8">
        <r>  0.0028  0.0046  0.0032  0.0273  0.0008  0.0001  0.0002  0.0000  0.0018 </r>
        <r>  0.0422  0.0008  0.0038  0.5797  0.0006  0.0007  0.0148  0.0000  0.0229 </r>
       </set>
       <set comment="band 9">
        <r>  0.0013  0.0000  0.0086  0.0001  0.0007  0.1529  0.0129  0.0019  0.0002 </r>
        <r>  0.0076  0.0003  0.0007  0.0003  0.0001  0.0125  0.0654  0.0003  0.0072 </r>
       </set>
       <set comment="band 10">
        <r>  0.0062  0.0002  0.0006  0.0013  0.0006  0.0147  0.0866  0.0005  0.0071 </r>
        <r>  0.0011  0.0005  0.0059  0.0011  0.0070  0.1286  0.0102  0.0000  0.0041 </r>
       </set>
       <set comment="band 11">
        <r>  0.0018  0.0004  0.0028  0.0003  0.0700  0.0090  0.0161  0.0159  0.0083 </r>
        <r>  0.0041  0.0569  0.0017  0.0001  0.1109  0.0001  0.0663  0.0226  0.1081 </r>
       </set>
       <set comment="band 12">
        <r>  0.0006  0.0058  0.0253  0.0001  0.0122  0.0050  0.0486  0.2076  0.0256 </r>
        <r>  0.0012  0.0012  0.0168  0.0001  0.0446  0.0517  0.0198  0.0388  0.0113 </r>
       </set>
      </set>
      <set comment="kpoint 12">
       <set comment="band 1">
        <r>  0.6347  0.0001  0.0000  0.0090  0.0000  0.0001  0.0000  0.0001  0.0001 </r>
        <r>  0.1748  0.0001  0.0001  0.0027  0.0001  0.0000  0.0001  0.0001  0.0000 </r>
       </set>
       <set comment="band 2">
        <r>  0.1712  0.0005  0.0002  0.0019  0.0003  0.0003  0.0002  0.0001  0.0002 </r>
        <r>  0.6342  0.0002  0.0000  0.0119  0.0001  0.0005  0.0003  0.0002  0.0002 </r>
       </set>
       <set comment="band 3">
        <r>  0.0090  0.0005  0.0004  0.2014  0.0000  0.0002  0.0001  0.0001  0.0031 </r>
        <r>  0.0186  0.0002  0.0004  0.3675  0.0002  0.0003  0.0003  0.0000  0.0018 </r>
       </set>
       <set comment="band 4">
        <r>  0.0158  0.0002  0.0004  0.3652  0.0002  0.0001  0.0003  0.0000  0.0060 </r>
        <r>  0.0097  0.0000  0.0006  0.1974  0.0002  0.0004  0.0004  0.0000  0.0026 </r>
       </set>
       <set comment="band 5">
        <r>  0.0004  0.5086  0.0195  0.0001  0.0040  0.0001  0.0000  0.0002  0.0001 </r>
        <r>  0.0001  0.0460  0.0600  0.0002  0.0002  0.0002  0.0000  0.0019  0.0001 </r>
       </set>
       <set comment="band 6">
        <r>  0.0000  0.0573  0.0771  0.0000  0.0003  0.0008  0.0008  0.0003  0.0000 </r>
        <r>  0.0006  0.4376  0.0331  0.0003  0.0012  0.0007  0.0005  0.0004  0.0003 </r>
       </set>
       <set comment="band 7">
        <r>  0.0001  0.0524  0.1162  0.0003  0.0001  0.0003  0.0004  0.0002  0.0001 </r>
        <r>  0.0001  0.0109  0.4797  0.0002  0.0002  0.0001  0.0001  0.0022  0.0001 </r>
       </set>
       <set comment="band 8">
        <r>  0.0000  0.0210  0.4108  0.0002  0.0006  0.0031  0.0001  0.0022  0.0001 </r>
        <r>  0.0001  0.1105  0.0837  0.0004  0.0003  0.0002  0.0015  0.0001  0.0007 </r>
       </set>
       <set comment="band 9">
        <r>  0.0005  0.0139  0.0005  0.0011  0.2731  0.0024  0.0020  0.0199  0.0001 </r>
        <r>  0.0004  0.0019  0.0063  0.0001  0.0497  0.0009  0.0005  0.0049  0.0002 </r>
       </set>
       <set comment="band 10">
        <r>  0.0005  0.0045  0.0017  0.0001  0.0456  0.0076  0.0016  0.1295  0.0003 </r>
        <r>  0.0007  0.0019  0.0033  0.0001  0.1430  0.0009  0.0005  0.0299  0.0000 </r>
       </set>
       <set comment="band 11">
        <r>  0.0014  0.0015  0.0100  0.0001  0.0015  0.0104  0.0094  0.1470  0.0002 </r>
        <r>  0.0010  0.0068  0.0079  0.0001  0.0371  0.0093  0.0069  0.1537  0.0002 </r>
       </set>
       <set comment="band 12">
        <r>  0.0008  0.0006  0.0018  0.0008  0.0081  0.1021  0.0145  0.0493  0.0000 </r>
        <r>  0.0025  0.0030  0.0008  0.0017  0.0176  0.0315  0.0832  0.0584  0.0027 </r>
       </set>
      </set>
     </set>
    </set>
   </array>
  </projected>
 </calculation>
 <structure name="finalpos" >
  <crystal>
   <varray name="basis" >
    <v>       2.88042739       0.00000000       0.00000000 </v>
    <v>       0.00000000       4.19670192       0.00000000 </v>
    <v>       0.00000000       0.00000000       7.41324987 </v>
   </varray>
   <i name="volume">     89.61355253 </i>
   <varray name="rec_basis" >
    <v>       0.34717070      -0.00000000       0.00000000 </v>
    <v>       0.00000000       0.23828235       0.00000000 </v>
    <v>      -0.00000000      -0.00000000       0.13489360 </v>
   </varray>
  </crystal>
  <varray name="positions" >
   <v>       0.00000000       0.50000000       0.00000000 </v>
   <v>       0.50000000       0.00000000       0.50000000 </v>
  </varray>
 </structure>
</modeling>
