21
Lattice="4.800999895855029 -4.440892098500626e-16 0.0 2.400499947927515 4.157787873376899 0.0 0.0 0.0 49.052852220893335" Properties=species:S:1:pos:R:3:tags:I:1:forces:R:3 energy=-126.29787139359597 stress="0.010295132062504427 -5.951369752031169e-06 -2.9226405434171563e-07 -5.951369752031169e-06 0.01030121766613142 -3.954695837464707e-07 -2.9226405434171563e-07 -3.954695837464707e-07 0.0076219574036772725" pbc="T T F"
Pt       3.88419336       1.31975159      19.89617013        5       0.00030909      -0.00028626       0.00023662
Pt      -0.11630081      -0.06645158      22.19146522        4      -0.00050743      -0.00005563      -0.00051360
Pt       0.68412073       1.31914303      24.46753616        3       0.00022830       0.00003991       0.00011978
Pt       3.87948530       1.32016887      26.74212635        2      -0.00021558      -0.00003165       0.00029421
Pt      -0.11960461      -0.06941863      29.00541501        1       0.00020125      -0.00004628      -0.00013146
Pt       1.48359115       2.70575095      19.89618324        5       0.00019624      -0.00008312       0.00025971
Pt       2.28414791       1.31945172      22.19058157        4      -0.00007909      -0.00009879      -0.00019687
Pt       3.08426762       2.70502848      24.46738529        3       0.00008430      -0.00013208       0.00021474
Pt       1.48566510       2.70041398      26.74061475        2       0.00004384       0.00037381      -0.00008407
Pt       2.28518345       1.31930316      29.08564912        1       0.00034975      -0.00058071      -0.00026224
Pt       1.48358137      -0.06625258      19.89616082        5       0.00019317      -0.00015920       0.00027646
Pt       4.68468980       2.70533627      22.19138179        4      -0.00026296       0.00052489      -0.00039516
Pt       3.08400239      -0.06609691      24.46750057        3      -0.00020543       0.00023128       0.00009954
Pt       1.48699360      -0.06274323      26.74288312        2      -0.00001668      -0.00027420       0.00021892
Pt       4.68350490       2.70380592      29.01379596        1       0.00008082      -0.00020317      -0.00016496
O        2.65612798       1.52865921      31.72622476        0      -0.00019725       0.00042361      -0.00001593
H        2.74337830       2.50668139      31.87041482        0      -0.00023725      -0.00020623       0.00009656
H        3.54627089       1.11432068      31.87069436        0      -0.00004582       0.00016881       0.00017525
O        0.31200865       0.17513316      32.32087523        0      -0.00007593      -0.00004602      -0.00073133
H        1.15725615       0.66346623      32.09722543        0      -0.00006902       0.00018412       0.00002373
H        0.27692668       0.15457385      33.29185308        0       0.00022569       0.00025688       0.00048009
