 vasp.5.4.4.18Apr17-6-g9f103f2a35 (build Jul 24 2019 14:41:59) complex          
  
 executed on IFC18.0.1.163_CrayMP date 2019.09.25  19:21:08
 running on   32 total cores
 distrk:  each k-point on   32 cores,    1 groups
 distr:  one band on NCORES_PER_BAND=   1 cores,   32 groups


--------------------------------------------------------------------------------------------------------


 INCAR:
 POTCAR:   PAW_PBE Ag 06Sep2000                   
 POTCAR:   PAW_PBE Au 06Sep2000                   
 POTCAR:   PAW_PBE F 08Apr2002                    

 ----------------------------------------------------------------------------- 
|                                                                             |
|           W    W    AA    RRRRR   N    N  II  N    N   GGGG   !!!           |
|           W    W   A  A   R    R  NN   N  II  NN   N  G    G  !!!           |
|           W    W  A    A  R    R  N N  N  II  N N  N  G       !!!           |
|           W WW W  AAAAAA  RRRRR   N  N N  II  N  N N  G  GGG   !            |
|           WW  WW  A    A  R   R   N   NN  II  N   NN  G    G                |
|           W    W  A    A  R    R  N    N  II  N    N   GGGG   !!!           |
|                                                                             |
|      For optimal performance we recommend to set                            |
|        NCORE= 4 - approx SQRT( number of cores)                             |
|      NCORE specifies how many cores store one orbital (NPAR=cpu/NCORE).     |
|      This setting can  greatly improve the performance of VASP for DFT.     |
|      The default,   NCORE=1            might be grossly inefficient         |
|      on modern multi-core architectures or massively parallel machines.     |
|      Do your own testing !!!!                                               |
|      Unfortunately you need to use the default for GW and RPA calculations. |
|      (for HF NCORE is supported but not extensively tested yet)             |
|                                                                             |
 ----------------------------------------------------------------------------- 

 POTCAR:   PAW_PBE Ag 06Sep2000                   
   VRHFIN =Ag : s1 d10                                                          
   LEXCH  = PE                                                                  
   EATOM  =  1037.4134 eV,   76.2477 Ry                                         
                                                                                
   TITEL  = PAW_PBE Ag 06Sep2000                                                
   LULTRA =        F    use ultrasoft PP ?                                      
   IUNSCR =        1    unscreen: 0-lin 1-nonlin 2-no                           
   RPACOR =    2.000    partial core radius                                     
   POMASS =  107.868; ZVAL   =   11.000    mass and valenz                      
   RCORE  =    2.400    outmost cutoff radius                                   
   RWIGS  =    2.840; RWIGS  =    1.503    wigner-seitz radius (au A)           
   ENMAX  =  249.846; ENMIN  =  187.385 eV                                      
   RCLOC  =    1.962    cutoff for local pot                                    
   LCOR   =        T    correct aug charges                                     
   LPAW   =        T    paw PP                                                  
   EAUG   =  412.496                                                            
   DEXC   =    -.047                                                            
   RMAX   =    2.917    core radius for proj-oper                               
   RAUG   =    1.300    factor for augmentation sphere                          
   RDEP   =    2.416    radius for radial grids                                 
   QCUT   =   -4.285; QGAM   =    8.570    optimization parameters              
                                                                                
   Description                                                                  
     l     E      TYP  RCUT    TYP  RCUT                                        
     2   .000     23  2.400                                                     
     2   .000     23  2.400                                                     
     0   .000     23  2.400                                                     
     0   .000     23  2.400                                                     
     1  -.200     23  2.400                                                     
     1  1.500     23  2.400                                                     
     3   .000      7   .000                                                     
  local pseudopotential read in
  partial core-charges read in
  atomic valenz-charges read in
  non local Contribution for L=           2  read in
    real space projection operators read in
  non local Contribution for L=           2  read in
    real space projection operators read in
  non local Contribution for L=           0  read in
    real space projection operators read in
  non local Contribution for L=           0  read in
    real space projection operators read in
  non local Contribution for L=           1  read in
    real space projection operators read in
  non local Contribution for L=           1  read in
    real space projection operators read in
    PAW grid and wavefunctions read in
 
   number of l-projection  operators is LMAX  =           6
   number of lm-projection operators is LMMAX =          18
 
 POTCAR:   PAW_PBE Au 06Sep2000                   
   VRHFIN =Au: s1d10                                                            
   LEXCH  = PE                                                                  
   EATOM  =   926.0567 eV,   68.0632 Ry                                         
                                                                                
   TITEL  = PAW_PBE Au 06Sep2000                                                
   LULTRA =        F    use ultrasoft PP ?                                      
   IUNSCR =        1    unscreen: 0-lin 1-nonlin 2-no                           
   RPACOR =    2.330    partial core radius                                     
   POMASS =  196.966; ZVAL   =   11.000    mass and valenz                      
   RCORE  =    2.500    outmost cutoff radius                                   
   RWIGS  =    2.840; RWIGS  =    1.503    wigner-seitz radius (au A)           
   ENMAX  =  229.948; ENMIN  =  172.461 eV                                      
   RCLOC  =    1.964    cutoff for local pot                                    
   LCOR   =        T    correct aug charges                                     
   LPAW   =        T    paw PP                                                  
   EAUG   =  356.670                                                            
   DEXC   =    -.025                                                            
   RMAX   =    3.041    core radius for proj-oper                               
   RAUG   =    1.300    factor for augmentation sphere                          
   RDEP   =    2.598    radius for radial grids                                 
   QCUT   =   -4.111; QGAM   =    8.222    optimization parameters              
                                                                                
   Description                                                                  
     l     E      TYP  RCUT    TYP  RCUT                                        
     2   .000     23  2.500                                                     
     2   .000     23  2.500                                                     
     0   .000     23  2.500                                                     
     0   .000     23  2.500                                                     
     1  -.200     23  2.500                                                     
     1   .000     23  2.500                                                     
     3   .000      7   .000                                                     
  local pseudopotential read in
  partial core-charges read in
  atomic valenz-charges read in
  non local Contribution for L=           2  read in
    real space projection operators read in
  non local Contribution for L=           2  read in
    real space projection operators read in
  non local Contribution for L=           0  read in
    real space projection operators read in
  non local Contribution for L=           0  read in
    real space projection operators read in
  non local Contribution for L=           1  read in
    real space projection operators read in
  non local Contribution for L=           1  read in
    real space projection operators read in
    PAW grid and wavefunctions read in
 
   number of l-projection  operators is LMAX  =           6
   number of lm-projection operators is LMMAX =          18
 
 POTCAR:   PAW_PBE F 08Apr2002                    
   VRHFIN =F: s2p5                                                              
   LEXCH  = PE                                                                  
   EATOM  =   659.4942 eV,   48.4715 Ry                                         
                                                                                
   TITEL  = PAW_PBE F 08Apr2002                                                 
   LULTRA =        F    use ultrasoft PP ?                                      
   IUNSCR =        0    unscreen: 0-lin 1-nonlin 2-no                           
   RPACOR =     .000    partial core radius                                     
   POMASS =   18.998; ZVAL   =    7.000    mass and valenz                      
   RCORE  =    1.520    outmost cutoff radius                                   
   RWIGS  =    1.500; RWIGS  =     .794    wigner-seitz radius (au A)           
   ENMAX  =  400.000; ENMIN  =  300.000 eV                                      
   ICORE  =        2    local potential                                         
   LCOR   =        T    correct aug charges                                     
   LPAW   =        T    paw PP                                                  
   EAUG   =  613.614                                                            
   DEXC   =     .000                                                            
   RMAX   =    2.254    core radius for proj-oper                               
   RAUG   =    1.300    factor for augmentation sphere                          
   RDEP   =    1.539    radius for radial grids                                 
   QCUT   =   -5.545; QGAM   =   11.091    optimization parameters              
                                                                                
   Description                                                                  
     l     E      TYP  RCUT    TYP  RCUT                                        
     0   .000     23  1.200                                                     
     0  -.700     23  1.200                                                     
     1   .000     23  1.520                                                     
     1   .100     23  1.520                                                     
     2   .000      7  1.500                                                     
  local pseudopotential read in
  atomic valenz-charges read in
  non local Contribution for L=           0  read in
    real space projection operators read in
  non local Contribution for L=           0  read in
    real space projection operators read in
  non local Contribution for L=           1  read in
    real space projection operators read in
  non local Contribution for L=           1  read in
    real space projection operators read in
    PAW grid and wavefunctions read in
 
   number of l-projection  operators is LMAX  =           4
   number of lm-projection operators is LMMAX =           8
 
 Optimization of the real space projectors (new method)

 maximal supplied QI-value         = 15.68
 optimisation between [QCUT,QGAM] = [ 11.61, 23.21] = [ 37.72,150.90] Ry 
 Optimized for a Real-space Cutoff    1.40 Angstroem

   l    n(q)    QCUT    max X(q) W(low)/X(q) W(high)/X(q)  e(spline) 
   2      9    11.607     3.831    0.18E-04    0.49E-04    0.51E-07
   2      9    11.607    20.184    0.14E-03    0.62E-03    0.39E-06
   0     10    11.607    16.770    0.15E-04    0.18E-05    0.21E-07
   0     10    11.607    80.708    0.16E-03    0.49E-04    0.15E-06
   1      9    11.607     6.696    0.48E-04    0.68E-04    0.26E-07
   1      9    11.607     8.973    0.98E-04    0.22E-03    0.16E-06
 Optimization of the real space projectors (new method)

 maximal supplied QI-value         = 15.12
 optimisation between [QCUT,QGAM] = [ 11.64, 23.28] = [ 37.95,151.78] Ry 
 Optimized for a Real-space Cutoff    1.49 Angstroem

   l    n(q)    QCUT    max X(q) W(low)/X(q) W(high)/X(q)  e(spline) 
   2      9    11.641     3.714    0.29E-04    0.26E-05    0.61E-07
   2      9    11.641    30.244    0.92E-04    0.19E-03    0.70E-06
   0     10    11.641    12.875    0.11E-04    0.75E-05    0.20E-07
   0     10    11.641    62.664    0.13E-03    0.12E-03    0.45E-06
   1     10    11.641     6.953    0.24E-04    0.22E-04    0.57E-07
   1     10    11.641    10.039    0.12E-03    0.51E-04    0.21E-06
 Optimization of the real space projectors (new method)

 maximal supplied QI-value         = 24.76
 optimisation between [QCUT,QGAM] = [ 11.64, 23.27] = [ 37.91,151.63] Ry 
 Optimized for a Real-space Cutoff    1.04 Angstroem

   l    n(q)    QCUT    max X(q) W(low)/X(q) W(high)/X(q)  e(spline) 
   0      7    11.635     4.906    0.48E-04    0.15E-03    0.36E-07
   0      7    11.635     5.365    0.12E-03    0.48E-03    0.17E-06
   1      7    11.635     2.511    0.70E-04    0.18E-03    0.19E-07
   1      7    11.635     3.801    0.23E-03    0.36E-03    0.19E-06
 PAW_PBE Ag 06Sep2000                   :
 energy of atom  1       EATOM=-1037.4134
 kinetic energy error for atom=    0.0047 (will be added to EATOM!!)
 PAW_PBE Au 06Sep2000                   :
 energy of atom  2       EATOM= -926.0567
 kinetic energy error for atom=    0.0034 (will be added to EATOM!!)
 PAW_PBE F 08Apr2002                    :
 energy of atom  3       EATOM= -659.4942
 kinetic energy error for atom=    0.0323 (will be added to EATOM!!)
 
 
 POSCAR: Ag2 Au4 F16                             
  positions in direct lattice
  No initial velocities read in
 exchange correlation table for  LEXCH =        8
   RHO(1)=    0.500       N(1)  =     2000
   RHO(2)=  100.500       N(2)  =     4000
 


--------------------------------------------------------------------------------------------------------


 ion  position               nearest neighbor table
   1  0.500  0.500  0.500-  14 2.16  16 2.16  18 2.23  20 2.23  12 2.55  21 2.55
   2  0.000  0.500  0.000-  13 2.16  15 2.16  17 2.23  19 2.23  11 2.55  22 2.55
   3  0.680  0.256  0.013-   9 1.94  22 1.96  18 1.99  14 1.99
   4  0.180  0.744  0.487-  10 1.94  21 1.96  17 1.99  13 1.99
   5  0.820  0.256  0.513-   8 1.94  12 1.96  19 1.99  15 1.99
   6  0.320  0.744  0.987-   7 1.94  11 1.96  20 1.99  16 1.99
   7  0.225  0.442  0.270-   6 1.94
   8  0.725  0.558  0.230-   5 1.94
   9  0.775  0.558  0.730-   3 1.94
  10  0.275  0.442  0.770-   4 1.94
  11  0.174  0.891  0.805-   6 1.96   2 2.55
  12  0.674  0.109  0.695-   5 1.96   1 2.55
  13  0.087  0.035  0.190-   4 1.99   2 2.16
  14  0.587  0.965  0.310-   3 1.99   1 2.16
  15  0.913  0.965  0.810-   5 1.99   2 2.16
  16  0.413  0.035  0.690-   6 1.99   1 2.16
  17  0.032  0.595  0.670-   4 1.99   2 2.23
  18  0.532  0.405  0.830-   3 1.99   1 2.23
  19  0.968  0.405  0.330-   5 1.99   2 2.23
  20  0.468  0.595  0.170-   6 1.99   1 2.23
  21  0.326  0.891  0.305-   4 1.96   1 2.55
  22  0.826  0.109  0.195-   3 1.96   2 2.55
 
  LATTYP: Found a simple monoclinic cell.
 ALAT       =     7.6563421985
 B/A-ratio  =     1.4869552202
 C/A-ratio  =     1.5807452970
 COS(beta)  =    -0.9409987739
  
  Lattice vectors:
  
 A1 = (   0.0000000000,  -5.1569880000,  -5.6590680000)
 A2 = ( -11.3846380000,   0.0000000000,   0.0000000000)
 A3 = (   0.0000000000,  10.6981750000,   5.6590680000)


Analysis of symmetry for initial positions (statically):
=====================================================================
 Subroutine PRICEL returns:
 Original cell was already a primitive cell.
 

 Routine SETGRP: Setting up the symmetry group for a 
 simple monoclinic supercell.


 Subroutine GETGRP returns: Found  4 space group operations
 (whereof  2 operations were pure point group operations)
 out of a pool of  4 trial point group operations.


The static configuration has the point symmetry S_2 .
 The point group associated with its full space group is C_2h.


Analysis of symmetry for dynamics (positions and initial velocities):
=====================================================================
 Subroutine PRICEL returns:
 Original cell was already a primitive cell.
 

 Routine SETGRP: Setting up the symmetry group for a 
 simple monoclinic supercell.


 Subroutine GETGRP returns: Found  4 space group operations
 (whereof  2 operations were pure point group operations)
 out of a pool of  4 trial point group operations.


The dynamic configuration has the point symmetry S_2 .
 The point group associated with its full space group is C_2h.


Analysis of structural, dynamic, and magnetic symmetry:
=====================================================================
 Subroutine PRICEL returns:
 Original cell was already a primitive cell.
 

 Routine SETGRP: Setting up the symmetry group for a 
 simple monoclinic supercell.


 Subroutine GETGRP returns: Found  4 space group operations
 (whereof  2 operations were pure point group operations)
 out of a pool of  4 trial point group operations.


The magnetic configuration has the point symmetry S_2 .
 The point group associated with its full space group is C_2h.


 Subroutine INISYM returns: Found  4 space group operations
 (whereof  2 operations are pure point group operations),
 and found     1 'primitive' translations

 
 
 KPOINTS: pymatgen v1.1 with grid density = 1529 /

Automatic generation of k-mesh.
Space group operators:
 irot       det(A)        alpha          n_x          n_y          n_z        tau_x        tau_y        tau_z
    1     1.000000     0.000000     1.000000     0.000000     0.000000     0.000000     0.000000     0.000000
    2    -1.000000     0.000000     1.000000     0.000000     0.000000     0.000000     0.000000     0.000000
    3     1.000000   180.000000     1.000000     0.000000     0.000000    -0.500000    -0.000000    -0.500000
    4    -1.000000   180.000000     1.000000     0.000000     0.000000    -0.500000    -0.000000    -0.500000
 
 Subroutine IBZKPT returns following result:
 ===========================================
 
 Found     22 irreducible k-points:
 
 Following reciprocal coordinates:
            Coordinates               Weight
  0.000000  0.000000  0.000000      1.000000
  0.500000  0.000000  0.000000      1.000000
  0.000000  0.200000 -0.000000      2.000000
  0.500000  0.200000 -0.000000      2.000000
  0.000000  0.400000 -0.000000      2.000000
  0.500000  0.400000 -0.000000      2.000000
  0.000000  0.000000  0.250000      2.000000
  0.500000  0.000000  0.250000      2.000000
  0.000000  0.200000  0.250000      2.000000
  0.500000  0.200000  0.250000      2.000000
  0.000000  0.400000  0.250000      2.000000
  0.500000  0.400000  0.250000      2.000000
  0.000000 -0.400000  0.250000      2.000000
  0.500000 -0.400000  0.250000      2.000000
  0.000000 -0.200000  0.250000      2.000000
  0.500000 -0.200000  0.250000      2.000000
  0.000000  0.000000  0.500000      1.000000
  0.500000  0.000000  0.500000      1.000000
  0.000000  0.200000  0.500000      2.000000
  0.500000  0.200000  0.500000      2.000000
  0.000000  0.400000  0.500000      2.000000
  0.500000  0.400000  0.500000      2.000000
 
 Following cartesian coordinates:
            Coordinates               Weight
  0.000000  0.000000  0.000000      1.000000
  0.043919  0.000000  0.000000      1.000000
  0.000000  0.036093 -0.032891      2.000000
  0.043919  0.036093 -0.032891      2.000000
  0.000000  0.072187 -0.065782      2.000000
  0.043919  0.072187 -0.065782      2.000000
  0.000000  0.000000  0.044177      2.000000
  0.043919  0.000000  0.044177      2.000000
  0.000000  0.036093  0.011286      2.000000
  0.043919  0.036093  0.011286      2.000000
  0.000000  0.072187 -0.021605      2.000000
  0.043919  0.072187 -0.021605      2.000000
  0.000000 -0.072187  0.109959      2.000000
  0.043919 -0.072187  0.109959      2.000000
  0.000000 -0.036093  0.077068      2.000000
  0.043919 -0.036093  0.077068      2.000000
  0.000000  0.000000  0.088354      1.000000
  0.043919  0.000000  0.088354      1.000000
  0.000000  0.036093  0.055463      2.000000
  0.043919  0.036093  0.055463      2.000000
  0.000000  0.072187  0.022572      2.000000
  0.043919  0.072187  0.022572      2.000000
 


--------------------------------------------------------------------------------------------------------




 Dimension of arrays:
   k-points           NKPTS =     22   k-points in BZ     NKDIM =     22   number of bands    NBANDS=    128
   number of dos      NEDOS =    301   number of ions     NIONS =     22
   non local maximal  LDIM  =      6   non local SUM 2l+1 LMDIM =     18
   total plane-waves  NPLWV = 226800
   max r-space proj   IRMAX =   8837   max aug-charges    IRDMAX= 310966
   dimension x,y,z NGX =    90 NGY =   42 NGZ =   60
   dimension x,y,z NGXF=   180 NGYF=   84 NGZF=  120
   support grid    NGXF=   360 NGYF=  168 NGZF=  240
   ions per type =               2   4  16
   NGX,Y,Z   is equivalent  to a cutoff of  13.14, 12.60, 13.03 a.u.
   NGXF,Y,Z  is equivalent  to a cutoff of  26.28, 25.20, 26.06 a.u.

 SYSTEM =  unknown system                          
 POSCAR =  Ag2 Au4 F16                             

 Startparameter for this run:
   NWRITE =      2    write-flag & timer
   PREC   = accura    normal or accurate (medium, high low for compatibility)
   ISTART =      0    job   : 0-new  1-cont  2-samecut
   ICHARG =      2    charge: 1-file 2-atom 10-const
   ISPIN  =      2    spin polarized calculation?
   LNONCOLLINEAR =      F non collinear calculations
   LSORBIT =      F    spin-orbit coupling
   INIWAV =      1    electr: 0-lowe 1-rand  2-diag
   LASPH  =      T    aspherical Exc in radial PAW
   METAGGA=      F    non-selfconsistent MetaGGA calc.

 Electronic Relaxation 1
   ENCUT  =  520.0 eV  38.22 Ry    6.18 a.u.  21.17 10.30 14.24*2*pi/ulx,y,z
   ENINI  =  520.0     initial cutoff
   ENAUG  =  613.6 eV  augmentation charge cutoff
   NELM   =    100;   NELMIN=  2; NELMDL=  0     # of ELM steps 
   EDIFF  = 0.1E-02   stopping-criterion for ELM
   LREAL  =      T    real-space projection
   NLSPLINE    = F    spline interpolate recip. space projectors
   LCOMPAT=      F    compatible to vasp.4.4
   GGA_COMPAT  = T    GGA compatible to vasp.4.4-vasp.4.6
   LMAXPAW     = -100 max onsite density
   LMAXMIX     =    2 max onsite mixed and CHGCAR
   VOSKOWN=      0    Vosko Wilk Nusair interpolation
   ROPT   =   -0.00025  -0.00025  -0.00025
 Ionic relaxation
   EDIFFG = 0.1E-01   stopping-criterion for IOM
   NSW    =      0    number of steps for IOM
   NBLOCK =      1;   KBLOCK =      1    inner block; outer block 
   IBRION =     -1    ionic relax: 0-MD 1-quasi-New 2-CG
   NFREE  =      0    steps in history (QN), initial steepest desc. (CG)
   ISIF   =      3    stress and relaxation
   IWAVPR =     10    prediction:  0-non 1-charg 2-wave 3-comb
   ISYM   =      2    0-nonsym 1-usesym 2-fastsym
   LCORR  =      T    Harris-Foulkes like correction to forces

   POTIM  = 0.5000    time-step for ionic-motion
   TEIN   =    0.0    initial temperature
   TEBEG  =    0.0;   TEEND  =   0.0 temperature during run
   SMASS  =  -3.00    Nose mass-parameter (am)
   estimated Nose-frequenzy (Omega)   =  0.10E-29 period in steps =****** mass=  -0.296E-26a.u.
   SCALEE = 1.0000    scale energy and forces
   NPACO  =    256;   APACO  = 16.0  distance and # of slots for P.C.
   PSTRESS=    0.0 pullay stress

  Mass of Ions in am
   POMASS = 107.87196.97 19.00
  Ionic Valenz
   ZVAL   =  11.00 11.00  7.00
  Atomic Wigner-Seitz radii
   RWIGS  =  -1.00 -1.00 -1.00
  virtual crystal weights 
   VCA    =   1.00  1.00  1.00
   NELECT =     178.0000    total number of electrons
   NUPDOWN=      -1.0000    fix difference up-down

 DOS related values:
   EMIN   =  10.00;   EMAX   =-10.00  energy-range for DOS
   EFERMI =   0.00
   ISMEAR =     0;   SIGMA  =   0.05  broadening in eV -4-tet -1-fermi 0-gaus

 Electronic relaxation 2 (details)
   IALGO  =     38    algorithm
   LDIAG  =      T    sub-space diagonalisation (order eigenvalues)
   LSUBROT=      F    optimize rotation matrix (better conditioning)
   TURBO    =      0    0=normal 1=particle mesh
   IRESTART =      0    0=no restart 2=restart with 2 vectors
   NREBOOT  =      0    no. of reboots
   NMIN     =      0    reboot dimension
   EREF     =   0.00    reference energy to select bands
   IMIX   =      4    mixing-type and parameters
     AMIX     =   0.40;   BMIX     =  1.00
     AMIX_MAG =   1.60;   BMIX_MAG =  1.00
     AMIN     =   0.10
     WC   =   100.;   INIMIX=   1;  MIXPRE=   1;  MAXMIX= -45

 Intra band minimization:
   WEIMIN = 0.0000     energy-eigenvalue tresh-hold
   EBREAK =  0.21E-05  absolut break condition
   DEPER  =   0.30     relativ break condition  

   TIME   =   0.40     timestep for ELM

  volume/ion in A,a.u.               =      16.23       109.51
  Fermi-wavevector in a.u.,A,eV,Ry     =   1.298153  2.453153 22.928551  1.685201
  Thomas-Fermi vector in A             =   2.429500
 
 Write flags
   LWAVE        =      F    write WAVECAR
   LDOWNSAMPLE  =      F    k-point downsampling of WAVECAR
   LCHARG       =      T    write CHGCAR
   LVTOT        =      F    write LOCPOT, total local potential
   LVHAR        =      T    write LOCPOT, Hartree potential only
   LELF         =      T    write electronic localiz. function (ELF)
   LORBIT       =     11    0 simple, 1 ext, 2 COOP (PROOUT), +10 PAW based schemes


 Dipole corrections
   LMONO  =      F    monopole corrections only (constant potential shift)
   LDIPOL =      F    correct potential (dipole corrections)
   IDIPOL =      0    1-x, 2-y, 3-z, 4-all directions 
   EPSILON=  1.0000000 bulk dielectric constant

 Exchange correlation treatment:
   GGA     =    --    GGA type
   LEXCH   =     8    internal setting for exchange type
   VOSKOWN=      0    Vosko Wilk Nusair interpolation
   LHFCALC =     F    Hartree Fock is set to
   LHFONE  =     F    Hartree Fock one center treatment
   AEXX    =    0.0000 exact exchange contribution

 Linear response parameters
   LEPSILON=     F    determine dielectric tensor
   LRPA    =     F    only Hartree local field effects (RPA)
   LNABLA  =     F    use nabla operator in PAW spheres
   LVEL    =     F    velocity operator in full k-point grid
   LINTERFAST=   F  fast interpolation
   KINTER  =     0    interpolate to denser k-point grid
   CSHIFT  =0.1000    complex shift for real part using Kramers Kronig
   OMEGAMAX=  -1.0    maximum frequency
   DEG_THRESHOLD= 0.2000000E-02 threshold for treating states as degnerate
   RTIME   =   -0.100 relaxation time in fs
  (WPLASMAI=    0.000 imaginary part of plasma frequency in eV, 0.658/RTIME)
   DFIELD  = 0.0000000 0.0000000 0.0000000 field for delta impulse in time
 
 Orbital magnetization related:
   ORBITALMAG=     F  switch on orbital magnetization
   LCHIMAG   =     F  perturbation theory with respect to B field
   DQ        =  0.001000  dq finite difference perturbation B field
   LLRAUG    =     F  two centre corrections for induced B field



--------------------------------------------------------------------------------------------------------


 Static calculation
 charge density and potential will be updated during run
 spin polarized calculation
 Variant of blocked Davidson
 Davidson routine will perform the subspace rotation
 perform sub-space diagonalisation
    after iterative eigenvector-optimisation
 modified Broyden-mixing scheme, WC =      100.0
 initial mixing is a Kerker type mixing with AMIX =  0.4000 and BMIX =      1.0000
 Hartree-type preconditioning will be used
 using additional bands           39
 real space projection scheme for non local part
 use partial core corrections
 calculate Harris-corrections to forces 
   (improved forces if not selfconsistent)
 use gradient corrections 
 use of overlap-Matrix (Vanderbilt PP)
 Gauss-broadening in eV      SIGMA  =   0.05


--------------------------------------------------------------------------------------------------------


  energy-cutoff  :      520.00
  volume of cell :      357.00
      direct lattice vectors                 reciprocal lattice vectors
    11.384638000  0.000000000  0.000000000     0.087837663  0.000000000  0.000000000
     0.000000000  5.541187000  0.000000000     0.000000000  0.180466748 -0.164455500
     0.000000000  5.156988000  5.659068000     0.000000000  0.000000000  0.176707543

  length of vectors
    11.384638000  5.541187000  7.656342199     0.087837663  0.244159494  0.176707543


 
 k-points in units of 2pi/SCALE and weight: pymatgen v1.1 with grid density = 1529 /
   0.00000000  0.00000000  0.00000000       0.025
   0.04391883  0.00000000  0.00000000       0.025
   0.00000000  0.03609335 -0.03289110       0.050
   0.04391883  0.03609335 -0.03289110       0.050
   0.00000000  0.07218670 -0.06578220       0.050
   0.04391883  0.07218670 -0.06578220       0.050
   0.00000000  0.00000000  0.04417689       0.050
   0.04391883  0.00000000  0.04417689       0.050
   0.00000000  0.03609335  0.01128579       0.050
   0.04391883  0.03609335  0.01128579       0.050
   0.00000000  0.07218670 -0.02160531       0.050
   0.04391883  0.07218670 -0.02160531       0.050
   0.00000000 -0.07218670  0.10995909       0.050
   0.04391883 -0.07218670  0.10995909       0.050
   0.00000000 -0.03609335  0.07706799       0.050
   0.04391883 -0.03609335  0.07706799       0.050
   0.00000000  0.00000000  0.08835377       0.025
   0.04391883  0.00000000  0.08835377       0.025
   0.00000000  0.03609335  0.05546267       0.050
   0.04391883  0.03609335  0.05546267       0.050
   0.00000000  0.07218670  0.02257157       0.050
   0.04391883  0.07218670  0.02257157       0.050
 
 k-points in reciprocal lattice and weights: pymatgen v1.1 with grid density = 1529 /
   0.00000000  0.00000000  0.00000000       0.025
   0.50000000  0.00000000  0.00000000       0.025
   0.00000000  0.20000000 -0.00000000       0.050
   0.50000000  0.20000000 -0.00000000       0.050
   0.00000000  0.40000000 -0.00000000       0.050
   0.50000000  0.40000000 -0.00000000       0.050
   0.00000000  0.00000000  0.25000000       0.050
   0.50000000  0.00000000  0.25000000       0.050
   0.00000000  0.20000000  0.25000000       0.050
   0.50000000  0.20000000  0.25000000       0.050
   0.00000000  0.40000000  0.25000000       0.050
   0.50000000  0.40000000  0.25000000       0.050
   0.00000000 -0.40000000  0.25000000       0.050
   0.50000000 -0.40000000  0.25000000       0.050
   0.00000000 -0.20000000  0.25000000       0.050
   0.50000000 -0.20000000  0.25000000       0.050
   0.00000000  0.00000000  0.50000000       0.025
   0.50000000  0.00000000  0.50000000       0.025
   0.00000000  0.20000000  0.50000000       0.050
   0.50000000  0.20000000  0.50000000       0.050
   0.00000000  0.40000000  0.50000000       0.050
   0.50000000  0.40000000  0.50000000       0.050
 
 position of ions in fractional coordinates (direct lattice) 
   0.50000000  0.50000000  0.50000000
   0.00000000  0.50000000  0.00000000
   0.68021800  0.25568100  0.01322100
   0.18021800  0.74431900  0.48677900
   0.81978200  0.25568100  0.51322100
   0.31978200  0.74431900  0.98677900
   0.22522500  0.44201500  0.27018700
   0.72522500  0.55798500  0.22981300
   0.77477500  0.55798500  0.72981300
   0.27477500  0.44201500  0.77018700
   0.17391800  0.89064000  0.80533400
   0.67391800  0.10936000  0.69466600
   0.08680200  0.03503500  0.18951500
   0.58680200  0.96496500  0.31048500
   0.91319800  0.96496500  0.81048500
   0.41319800  0.03503500  0.68951500
   0.03174400  0.59544200  0.67004900
   0.53174400  0.40455800  0.82995100
   0.96825600  0.40455800  0.32995100
   0.46825600  0.59544200  0.17004900
   0.32608200  0.89064000  0.30533400
   0.82608200  0.10936000  0.19466600
 
 position of ions in cartesian coordinates  (Angst):
   5.69231900  5.34908750  2.82953400
   0.00000000  2.77059350  0.00000000
   7.74403569  1.48495677  0.07481854
   2.05171669  6.63472423  2.75471546
   9.33292131  4.06345077  2.90435254
   3.64060231  9.21321823  5.58424946
   2.56410509  3.84263889  1.52900661
   8.25642409  4.27704211  1.30052739
   8.82053291  6.85553611  4.13006139
   3.12821391  6.42113289  4.35854061
   1.97999347  9.08830056  4.55743987
   7.67231247  4.18836844  3.93116213
   0.98820935  1.17146207  1.07247827
   6.68052835  6.94821893  1.75705573
  10.39642865  9.52671293  4.58658973
   4.70410965  3.74995607  3.90201227
   0.36139395  6.75489012  3.79185285
   6.05371295  6.52177888  4.69674915
  11.02324405  3.94328488  1.86721515
   5.33092505  4.17639612  0.96231885
   3.71232553  6.50980656  1.72790587
   9.40464453  1.60987444  1.10162813
 


--------------------------------------------------------------------------------------------------------


 k-point  1 :   0.0000 0.0000 0.0000  plane waves:    9617
 k-point  2 :   0.5000 0.0000 0.0000  plane waves:    9630
 k-point  3 :   0.0000 0.2000-0.0000  plane waves:    9639
 k-point  4 :   0.5000 0.2000-0.0000  plane waves:    9596
 k-point  5 :   0.0000 0.4000-0.0000  plane waves:    9598
 k-point  6 :   0.5000 0.4000-0.0000  plane waves:    9598
 k-point  7 :   0.0000 0.0000 0.2500  plane waves:    9647
 k-point  8 :   0.5000 0.0000 0.2500  plane waves:    9604
 k-point  9 :   0.0000 0.2000 0.2500  plane waves:    9593
 k-point 10 :   0.5000 0.2000 0.2500  plane waves:    9632
 k-point 11 :   0.0000 0.4000 0.2500  plane waves:    9618
 k-point 12 :   0.5000 0.4000 0.2500  plane waves:    9620
 k-point 13 :   0.0000-0.4000 0.2500  plane waves:    9586
 k-point 14 :   0.5000-0.4000 0.2500  plane waves:    9616
 k-point 15 :   0.0000-0.2000 0.2500  plane waves:    9582
 k-point 16 :   0.5000-0.2000 0.2500  plane waves:    9610
 k-point 17 :   0.0000 0.0000 0.5000  plane waves:    9604
 k-point 18 :   0.5000 0.0000 0.5000  plane waves:    9608
 k-point 19 :   0.0000 0.2000 0.5000  plane waves:    9596
 k-point 20 :   0.5000 0.2000 0.5000  plane waves:    9622
 k-point 21 :   0.0000 0.4000 0.5000  plane waves:    9612
 k-point 22 :   0.5000 0.4000 0.5000  plane waves:    9630

 maximum and minimum number of plane-waves per node :      9647     9582

 maximum number of plane-waves:      9647
 maximum index in each direction: 
   IXMAX=   21   IYMAX=   10   IZMAX=   14
   IXMIN=  -21   IYMIN=  -10   IZMIN=  -14


 serial   3D FFT for wavefunctions
 parallel 3D FFT for charge:
    minimum data exchange during FFTs selected (reduces bandwidth)


 total amount of memory used by VASP MPI-rank0   106241. kBytes
=======================================================================

   base      :      30000. kBytes
   nonlr-proj:      14264. kBytes
   fftplans  :       9700. kBytes
   grid      :      23659. kBytes
   one-center:        684. kBytes
   wavefun   :      27934. kBytes
 
     INWAV:  cpu time    0.0001: real time    0.0001
 Broyden mixing: mesh for mixing (old mesh)
   NGX = 43   NGY = 21   NGZ = 29
  (NGX  =180   NGY  = 84   NGZ  =120)
  gives a total of  26187 points

 initial charge density was supplied:
 charge density of overlapping atoms calculated
 number of electron     178.0000000 magnetization      13.2000000
 keeping initial charge density in first step


--------------------------------------------------------------------------------------------------------


 Maximum index for non-local projection operator         8522
 Maximum index for augmentation-charges        10917 (set IRDMAX)


--------------------------------------------------------------------------------------------------------


 First call to EWALD:  gamma=   0.250
 Maximum number of real-space cells 2x 4x 3
 Maximum number of reciprocal cells 4x 2x 3

    FEWALD:  cpu time    0.0060: real time    0.0060


--------------------------------------- Iteration      1(   1)  ---------------------------------------


    POTLOK:  cpu time    0.2370: real time    0.2930
    SETDIJ:  cpu time    2.0763: real time    2.0767
     EDDAV:  cpu time   22.6678: real time   22.6710
       DOS:  cpu time    0.0048: real time    0.0050
    --------------------------------------------
      LOOP:  cpu time   24.9860: real time   25.0458

 eigenvalue-minimisations  : 11264
 total energy-change (2. order) : 0.1543522E+04  (-0.9511322E+04)
 number of electron     178.0000000 magnetization      13.2000000
 augmentation part      178.0000000 magnetization      13.2000000

 Free energy of the ion-electron system (eV)
  ---------------------------------------------------
  alpha Z        PSCENC =       700.56228066
  Ewald energy   TEWEN  =    -10899.55628982
  -Hartree energ DENC   =     -5428.26504480
  -exchange      EXHF   =         0.00000000
  -V(xc)+E(xc)   XCENC  =       627.15176301
  PAW double counting   =     11633.24165655   -11528.66023732
  entropy T*S    EENTRO =        -0.01044676
  eigenvalues    EBANDS =       108.63727020
  atomic energy  EATOM  =     16330.42090593
  Solvation  Ediel_sol  =         0.00000000
  ---------------------------------------------------
  free energy    TOTEN  =      1543.52185767 eV

  energy without entropy =     1543.53230443  energy(sigma->0) =     1543.52708105


--------------------------------------------------------------------------------------------------------




--------------------------------------- Iteration      1(   2)  ---------------------------------------


     EDDAV:  cpu time   22.9525: real time   22.9536
       DOS:  cpu time    0.0041: real time    0.0041
    --------------------------------------------
      LOOP:  cpu time   22.9566: real time   22.9576

 eigenvalue-minimisations  : 11424
 total energy-change (2. order) :-0.1536734E+04  (-0.1458522E+04)
 number of electron     178.0000000 magnetization      13.2000000
 augmentation part      178.0000000 magnetization      13.2000000

 Free energy of the ion-electron system (eV)
  ---------------------------------------------------
  alpha Z        PSCENC =       700.56228066
  Ewald energy   TEWEN  =    -10899.55628982
  -Hartree energ DENC   =     -5428.26504480
  -exchange      EXHF   =         0.00000000
  -V(xc)+E(xc)   XCENC  =       627.15176301
  PAW double counting   =     11633.24165655   -11528.66023732
  entropy T*S    EENTRO =        -0.01215087
  eigenvalues    EBANDS =     -1428.09483290
  atomic energy  EATOM  =     16330.42090593
  Solvation  Ediel_sol  =         0.00000000
  ---------------------------------------------------
  free energy    TOTEN  =         6.78805046 eV

  energy without entropy =        6.80020133  energy(sigma->0) =        6.79412590


--------------------------------------------------------------------------------------------------------




--------------------------------------- Iteration      1(   3)  ---------------------------------------


     EDDAV:  cpu time   27.8490: real time   27.8502
       DOS:  cpu time    0.0040: real time    0.0040
    --------------------------------------------
      LOOP:  cpu time   27.8530: real time   27.8541

 eigenvalue-minimisations  : 14080
 total energy-change (2. order) :-0.1009440E+03  (-0.9976947E+02)
 number of electron     178.0000000 magnetization      13.2000000
 augmentation part      178.0000000 magnetization      13.2000000

 Free energy of the ion-electron system (eV)
  ---------------------------------------------------
  alpha Z        PSCENC =       700.56228066
  Ewald energy   TEWEN  =    -10899.55628982
  -Hartree energ DENC   =     -5428.26504480
  -exchange      EXHF   =         0.00000000
  -V(xc)+E(xc)   XCENC  =       627.15176301
  PAW double counting   =     11633.24165655   -11528.66023732
  entropy T*S    EENTRO =        -0.00134542
  eigenvalues    EBANDS =     -1529.04959449
  atomic energy  EATOM  =     16330.42090593
  Solvation  Ediel_sol  =         0.00000000
  ---------------------------------------------------
  free energy    TOTEN  =       -94.15590568 eV

  energy without entropy =      -94.15456026  energy(sigma->0) =      -94.15523297


--------------------------------------------------------------------------------------------------------




--------------------------------------- Iteration      1(   4)  ---------------------------------------


     EDDAV:  cpu time   22.5803: real time   22.5812
       DOS:  cpu time    0.0039: real time    0.0039
    --------------------------------------------
      LOOP:  cpu time   22.5842: real time   22.5851

 eigenvalue-minimisations  : 11264
 total energy-change (2. order) :-0.1027697E+01  (-0.1027474E+01)
 number of electron     178.0000000 magnetization      13.2000000
 augmentation part      178.0000000 magnetization      13.2000000

 Free energy of the ion-electron system (eV)
  ---------------------------------------------------
  alpha Z        PSCENC =       700.56228066
  Ewald energy   TEWEN  =    -10899.55628982
  -Hartree energ DENC   =     -5428.26504480
  -exchange      EXHF   =         0.00000000
  -V(xc)+E(xc)   XCENC  =       627.15176301
  PAW double counting   =     11633.24165655   -11528.66023732
  entropy T*S    EENTRO =        -0.00135023
  eigenvalues    EBANDS =     -1530.07728640
  atomic energy  EATOM  =     16330.42090593
  Solvation  Ediel_sol  =         0.00000000
  ---------------------------------------------------
  free energy    TOTEN  =       -95.18360240 eV

  energy without entropy =      -95.18225218  energy(sigma->0) =      -95.18292729


--------------------------------------------------------------------------------------------------------




--------------------------------------- Iteration      1(   5)  ---------------------------------------


     EDDAV:  cpu time   27.7609: real time   27.7620
       DOS:  cpu time    0.0041: real time    0.0042
    CHARGE:  cpu time    1.3283: real time    1.3284
    MIXING:  cpu time    0.0068: real time    0.0068
    --------------------------------------------
      LOOP:  cpu time   29.1001: real time   29.1014

 eigenvalue-minimisations  : 14080
 total energy-change (2. order) :-0.8293348E-02  (-0.8293175E-02)
 number of electron     178.0000004 magnetization       9.0160747
 augmentation part       46.4495774 magnetization       8.3263592

 Broyden mixing:
  rms(total) = 0.33073E+01    rms(broyden)= 0.33066E+01
  rms(prec ) = 0.41093E+01
  weight for this iteration     100.00

 Free energy of the ion-electron system (eV)
  ---------------------------------------------------
  alpha Z        PSCENC =       700.56228066
  Ewald energy   TEWEN  =    -10899.55628982
  -Hartree energ DENC   =     -5428.26504480
  -exchange      EXHF   =         0.00000000
  -V(xc)+E(xc)   XCENC  =       627.15176301
  PAW double counting   =     11633.24165655   -11528.66023732
  entropy T*S    EENTRO =        -0.00134983
  eigenvalues    EBANDS =     -1530.08558014
  atomic energy  EATOM  =     16330.42090593
  Solvation  Ediel_sol  =         0.00000000
  ---------------------------------------------------
  free energy    TOTEN  =       -95.19189575 eV

  energy without entropy =      -95.19054592  energy(sigma->0) =      -95.19122083


--------------------------------------------------------------------------------------------------------




--------------------------------------- Iteration      1(   6)  ---------------------------------------


    POTLOK:  cpu time    0.2050: real time    0.2050
    SETDIJ:  cpu time    2.0419: real time    2.0420
     EDDAV:  cpu time   27.5227: real time   27.5239
       DOS:  cpu time    0.0035: real time    0.0035
    CHARGE:  cpu time    1.3161: real time    1.3162
    MIXING:  cpu time    0.0070: real time    0.0070
    --------------------------------------------
      LOOP:  cpu time   31.0962: real time   31.0975

 eigenvalue-minimisations  : 14144
 total energy-change (2. order) : 0.3358947E+02  (-0.1088907E+02)
 number of electron     178.0000003 magnetization       6.9127679
 augmentation part       46.8762613 magnetization       5.2561091

 Broyden mixing:
  rms(total) = 0.13718E+01    rms(broyden)= 0.13706E+01
  rms(prec ) = 0.15646E+01
  weight for this iteration     100.00

 eigenvalues of (default mixing * dielectric matrix)
  average eigenvalue GAMMA=   0.8213
  0.8213

 Free energy of the ion-electron system (eV)
  ---------------------------------------------------
  alpha Z        PSCENC =       700.56228066
  Ewald energy   TEWEN  =    -10899.55628982
  -Hartree energ DENC   =     -5520.24682073
  -exchange      EXHF   =         0.00000000
  -V(xc)+E(xc)   XCENC  =       643.00700736
  PAW double counting   =     11860.89498018   -11771.92087808
  entropy T*S    EENTRO =        -0.00000000
  eigenvalues    EBANDS =     -1404.76361362
  atomic energy  EATOM  =     16330.42090593
  Solvation  Ediel_sol  =         0.00000000
  ---------------------------------------------------
  free energy    TOTEN  =       -61.60242811 eV

  energy without entropy =      -61.60242811  energy(sigma->0) =      -61.60242811


--------------------------------------------------------------------------------------------------------




--------------------------------------- Iteration      1(   7)  ---------------------------------------


    POTLOK:  cpu time    0.2042: real time    0.2043
    SETDIJ:  cpu time    2.0347: real time    2.0348
     EDDAV:  cpu time   23.5941: real time   23.5950
       DOS:  cpu time    0.0035: real time    0.0035
    CHARGE:  cpu time    1.3232: real time    1.3232
    MIXING:  cpu time    0.0059: real time    0.0059
    --------------------------------------------
      LOOP:  cpu time   27.1656: real time   27.1667

 eigenvalue-minimisations  : 11840
 total energy-change (2. order) :-0.5403593E+01  (-0.1625625E+01)
 number of electron     178.0000003 magnetization       5.0081373
 augmentation part       46.6522551 magnetization       3.6144023

 Broyden mixing:
  rms(total) = 0.72400E+00    rms(broyden)= 0.72393E+00
  rms(prec ) = 0.78275E+00
  weight for this iteration     100.00

 eigenvalues of (default mixing * dielectric matrix)
  average eigenvalue GAMMA=   0.8632
  0.8632  0.8632

 Free energy of the ion-electron system (eV)
  ---------------------------------------------------
  alpha Z        PSCENC =       700.56228066
  Ewald energy   TEWEN  =    -10899.55628982
  -Hartree energ DENC   =     -5494.38064781
  -exchange      EXHF   =         0.00000000
  -V(xc)+E(xc)   XCENC  =       637.56375703
  PAW double counting   =     11898.68663868   -11809.65297629
  entropy T*S    EENTRO =        -0.00000007
  eigenvalues    EBANDS =     -1430.64968988
  atomic energy  EATOM  =     16330.42090593
  Solvation  Ediel_sol  =         0.00000000
  ---------------------------------------------------
  free energy    TOTEN  =       -67.00602155 eV

  energy without entropy =      -67.00602148  energy(sigma->0) =      -67.00602152


--------------------------------------------------------------------------------------------------------




--------------------------------------- Iteration      1(   8)  ---------------------------------------


    POTLOK:  cpu time    0.2039: real time    0.2039
    SETDIJ:  cpu time    2.0403: real time    2.0404
     EDDAV:  cpu time   25.8508: real time   25.8518
       DOS:  cpu time    0.0033: real time    0.0033
    CHARGE:  cpu time    1.3292: real time    1.3292
    MIXING:  cpu time    0.0056: real time    0.0056
    --------------------------------------------
      LOOP:  cpu time   29.4331: real time   29.4342

 eigenvalue-minimisations  : 13088
 total energy-change (2. order) :-0.3930910E+01  (-0.4450752E+00)
 number of electron     178.0000003 magnetization       2.7324479
 augmentation part       46.6511728 magnetization       1.6076892

 Broyden mixing:
  rms(total) = 0.39147E+00    rms(broyden)= 0.39145E+00
  rms(prec ) = 0.42578E+00
  weight for this iteration     100.00

 eigenvalues of (default mixing * dielectric matrix)
  average eigenvalue GAMMA=   1.0862
  1.7180  0.9438  0.5967

 Free energy of the ion-electron system (eV)
  ---------------------------------------------------
  alpha Z        PSCENC =       700.56228066
  Ewald energy   TEWEN  =    -10899.55628982
  -Hartree energ DENC   =     -5478.31863498
  -exchange      EXHF   =         0.00000000
  -V(xc)+E(xc)   XCENC  =       634.92930100
  PAW double counting   =     11944.40516932   -11856.48362739
  entropy T*S    EENTRO =        -0.00000017
  eigenvalues    EBANDS =     -1446.89603580
  atomic energy  EATOM  =     16330.42090593
  Solvation  Ediel_sol  =         0.00000000
  ---------------------------------------------------
  free energy    TOTEN  =       -70.93693123 eV

  energy without entropy =      -70.93693107  energy(sigma->0) =      -70.93693115


--------------------------------------------------------------------------------------------------------




--------------------------------------- Iteration      1(   9)  ---------------------------------------


    POTLOK:  cpu time    0.2019: real time    0.2019
    SETDIJ:  cpu time    2.0367: real time    2.0368
     EDDAV:  cpu time   25.5328: real time   25.5339
       DOS:  cpu time    0.0033: real time    0.0033
    CHARGE:  cpu time    1.3312: real time    1.3312
    MIXING:  cpu time    0.0059: real time    0.0059
    --------------------------------------------
      LOOP:  cpu time   29.1118: real time   29.1131

 eigenvalue-minimisations  : 12928
 total energy-change (2. order) :-0.1485076E+01  (-0.2057895E+00)
 number of electron     178.0000003 magnetization       2.3430414
 augmentation part       46.7602128 magnetization       1.4075834

 Broyden mixing:
  rms(total) = 0.11526E+00    rms(broyden)= 0.11519E+00
  rms(prec ) = 0.12649E+00
  weight for this iteration     100.00

 eigenvalues of (default mixing * dielectric matrix)
  average eigenvalue GAMMA=   1.1355
  2.2789  0.8113  0.8113  0.6404

 Free energy of the ion-electron system (eV)
  ---------------------------------------------------
  alpha Z        PSCENC =       700.56228066
  Ewald energy   TEWEN  =    -10899.55628982
  -Hartree energ DENC   =     -5460.57906001
  -exchange      EXHF   =         0.00000000
  -V(xc)+E(xc)   XCENC  =       633.63794816
  PAW double counting   =     11995.03054713   -11908.33222316
  entropy T*S    EENTRO =        -0.00000048
  eigenvalues    EBANDS =     -1463.60611546
  atomic energy  EATOM  =     16330.42090593
  Solvation  Ediel_sol  =         0.00000000
  ---------------------------------------------------
  free energy    TOTEN  =       -72.42200705 eV

  energy without entropy =      -72.42200657  energy(sigma->0) =      -72.42200681


--------------------------------------------------------------------------------------------------------




--------------------------------------- Iteration      1(  10)  ---------------------------------------


    POTLOK:  cpu time    0.2024: real time    0.2024
    SETDIJ:  cpu time    2.0368: real time    2.0368
     EDDAV:  cpu time   23.9481: real time   23.9491
       DOS:  cpu time    0.0035: real time    0.0035
    CHARGE:  cpu time    1.3249: real time    1.3249
    MIXING:  cpu time    0.0063: real time    0.0063
    --------------------------------------------
      LOOP:  cpu time   27.5219: real time   27.5231

 eigenvalue-minimisations  : 12000
 total energy-change (2. order) :-0.8679430E-02  (-0.1453307E-01)
 number of electron     178.0000003 magnetization       2.2397155
 augmentation part       46.7543745 magnetization       1.3133435

 Broyden mixing:
  rms(total) = 0.54861E-01    rms(broyden)= 0.54831E-01
  rms(prec ) = 0.64608E-01
  weight for this iteration     100.00

 eigenvalues of (default mixing * dielectric matrix)
  average eigenvalue GAMMA=   1.0948
  2.2646  0.9930  0.8392  0.6887  0.6887

 Free energy of the ion-electron system (eV)
  ---------------------------------------------------
  alpha Z        PSCENC =       700.56228066
  Ewald energy   TEWEN  =    -10899.55628982
  -Hartree energ DENC   =     -5461.07200869
  -exchange      EXHF   =         0.00000000
  -V(xc)+E(xc)   XCENC  =       633.67421535
  PAW double counting   =     12008.32210488   -11921.98449639
  entropy T*S    EENTRO =        -0.00000545
  eigenvalues    EBANDS =     -1462.79739296
  atomic energy  EATOM  =     16330.42090593
  Solvation  Ediel_sol  =         0.00000000
  ---------------------------------------------------
  free energy    TOTEN  =       -72.43068648 eV

  energy without entropy =      -72.43068102  energy(sigma->0) =      -72.43068375


--------------------------------------------------------------------------------------------------------




--------------------------------------- Iteration      1(  11)  ---------------------------------------


    POTLOK:  cpu time    0.2008: real time    0.2147
    SETDIJ:  cpu time    2.0241: real time    2.0241
     EDDAV:  cpu time   26.8610: real time   26.8622
       DOS:  cpu time    0.0038: real time    0.0038
    CHARGE:  cpu time    1.3250: real time    1.3251
    MIXING:  cpu time    0.0063: real time    0.0063
    --------------------------------------------
      LOOP:  cpu time   30.4210: real time   30.4362

 eigenvalue-minimisations  : 13568
 total energy-change (2. order) :-0.5967899E-03  (-0.2609328E-02)
 number of electron     178.0000003 magnetization       2.0942063
 augmentation part       46.7199839 magnetization       1.1707655

 Broyden mixing:
  rms(total) = 0.27202E-01    rms(broyden)= 0.27197E-01
  rms(prec ) = 0.32309E-01
  weight for this iteration     100.00

 eigenvalues of (default mixing * dielectric matrix)
  average eigenvalue GAMMA=   1.1108
  2.3087  1.4084  0.8338  0.8338  0.6402  0.6402

 Free energy of the ion-electron system (eV)
  ---------------------------------------------------
  alpha Z        PSCENC =       700.56228066
  Ewald energy   TEWEN  =    -10899.55628982
  -Hartree energ DENC   =     -5462.37797585
  -exchange      EXHF   =         0.00000000
  -V(xc)+E(xc)   XCENC  =       633.70615064
  PAW double counting   =     12013.65957733   -11927.38823860
  entropy T*S    EENTRO =        -0.00000259
  eigenvalues    EBANDS =     -1461.45769098
  atomic energy  EATOM  =     16330.42090593
  Solvation  Ediel_sol  =         0.00000000
  ---------------------------------------------------
  free energy    TOTEN  =       -72.43128327 eV

  energy without entropy =      -72.43128067  energy(sigma->0) =      -72.43128197


--------------------------------------------------------------------------------------------------------




--------------------------------------- Iteration      1(  12)  ---------------------------------------


    POTLOK:  cpu time    0.2023: real time    0.2023
    SETDIJ:  cpu time    2.0076: real time    2.0077
     EDDAV:  cpu time   23.7069: real time   23.7079
       DOS:  cpu time    0.0035: real time    0.0035
    --------------------------------------------
      LOOP:  cpu time   25.9203: real time   25.9214

 eigenvalue-minimisations  : 11872
 total energy-change (2. order) : 0.1011361E-02  (-0.3566046E-03)
 number of electron     178.0000003 magnetization       2.0942063
 augmentation part       46.7199839 magnetization       1.1707655

 Free energy of the ion-electron system (eV)
  ---------------------------------------------------
  alpha Z        PSCENC =       700.56228066
  Ewald energy   TEWEN  =    -10899.55628982
  -Hartree energ DENC   =     -5461.35736434
  -exchange      EXHF   =         0.00000000
  -V(xc)+E(xc)   XCENC  =       633.64488205
  PAW double counting   =     12017.34815568   -11931.08203124
  entropy T*S    EENTRO =        -0.00000250
  eigenvalues    EBANDS =     -1462.41080833
  atomic energy  EATOM  =     16330.42090593
  Solvation  Ediel_sol  =         0.00000000
  ---------------------------------------------------
  free energy    TOTEN  =       -72.43027190 eV

  energy without entropy =      -72.43026940  energy(sigma->0) =      -72.43027065


--------------------------------------------------------------------------------------------------------




 average (electrostatic) potential at core
  the test charge radii are     1.1249  1.2098  0.7167
  (the norm of the test charge is              1.0000)
       1 -44.8382       2 -44.8382       3 -52.8561       4 -52.8561       5 -52.8561
       6 -52.8561       7 -79.7735       8 -79.7735       9 -79.7735      10 -79.7735
      11 -79.8778      12 -79.8778      13 -80.4987      14 -80.4987      15 -80.4987
      16 -80.4987      17 -80.3795      18 -80.3795      19 -80.3795      20 -80.3795
      21 -79.8778      22 -79.8778
 
 
 
 E-fermi :  -1.9563     XC(G=0):  -8.9581     alpha+bet : -5.6556


 spin component 1

 k-point     1 :       0.0000    0.0000    0.0000
  band No.  band energies     occupation 
      1     -24.1121      1.00000
      2     -24.0478      1.00000
      3     -23.9952      1.00000
      4     -23.9709      1.00000
      5     -23.8056      1.00000
      6     -23.8048      1.00000
      7     -23.7936      1.00000
      8     -23.7796      1.00000
      9     -23.3309      1.00000
     10     -23.3065      1.00000
     11     -23.2754      1.00000
     12     -23.2556      1.00000
     13     -23.1518      1.00000
     14     -23.1477      1.00000
     15     -23.0607      1.00000
     16     -23.0440      1.00000
     17      -8.5924      1.00000
     18      -8.4800      1.00000
     19      -8.3244      1.00000
     20      -8.2212      1.00000
     21      -8.0536      1.00000
     22      -7.9871      1.00000
     23      -7.8429      1.00000
     24      -7.7105      1.00000
     25      -7.2635      1.00000
     26      -7.2326      1.00000
     27      -7.1203      1.00000
     28      -6.9037      1.00000
     29      -6.6847      1.00000
     30      -6.5905      1.00000
     31      -6.4596      1.00000
     32      -6.4385      1.00000
     33      -6.4116      1.00000
     34      -6.2085      1.00000
     35      -6.1138      1.00000
     36      -6.0869      1.00000
     37      -6.0089      1.00000
     38      -6.0001      1.00000
     39      -5.9017      1.00000
     40      -5.7999      1.00000
     41      -5.7872      1.00000
     42      -5.7570      1.00000
     43      -5.4388      1.00000
     44      -5.4317      1.00000
     45      -5.4140      1.00000
     46      -5.3894      1.00000
     47      -5.0914      1.00000
     48      -5.0878      1.00000
     49      -5.0816      1.00000
     50      -4.7831      1.00000
     51      -4.7441      1.00000
     52      -4.5746      1.00000
     53      -4.4988      1.00000
     54      -4.4545      1.00000
     55      -4.3812      1.00000
     56      -4.3676      1.00000
     57      -4.2819      1.00000
     58      -4.2158      1.00000
     59      -4.2154      1.00000
     60      -4.1734      1.00000
     61      -4.1252      1.00000
     62      -4.1216      1.00000
     63      -3.9347      1.00000
     64      -3.8432      1.00000
     65      -3.7286      1.00000
     66      -3.7102      1.00000
     67      -3.7058      1.00000
     68      -3.6645      1.00000
     69      -3.5795      1.00000
     70      -3.5376      1.00000
     71      -3.4911      1.00000
     72      -3.4625      1.00000
     73      -3.3029      1.00000
     74      -3.2340      1.00000
     75      -3.2085      1.00000
     76      -3.0861      1.00000
     77      -3.0264      1.00000
     78      -2.9655      1.00000
     79      -2.9623      1.00000
     80      -2.9167      1.00000
     81      -2.8177      1.00000
     82      -2.7954      1.00000
     83      -2.7662      1.00000
     84      -2.7556      1.00000
     85      -2.6979      1.00000
     86      -2.6411      1.00000
     87      -2.4748      1.00000
     88      -2.2789      1.00000
     89      -2.2701      1.00000
     90      -2.2011      1.00000
     91      -0.1588      0.00000
     92       0.0215      0.00000
     93       0.0687      0.00000
     94       0.1687      0.00000
     95       1.8532      0.00000
     96       3.4827      0.00000
     97       3.5645      0.00000
     98       5.2102      0.00000
     99       5.9429      0.00000
    100       6.0126      0.00000
    101       7.3525      0.00000
    102       7.3620      0.00000
    103       7.3692      0.00000
    104       7.5610      0.00000
    105       7.8884      0.00000
    106       7.9899      0.00000
    107       8.0447      0.00000
    108       8.9053      0.00000
    109       9.1481      0.00000
    110       9.4652      0.00000
    111       9.5822      0.00000
    112       9.5842      0.00000
    113       9.7566      0.00000
    114      10.0541      0.00000
    115      10.7163      0.00000
    116      11.1304      0.00000
    117      11.6022      0.00000
    118      11.7111      0.00000
    119      11.7155      0.00000
    120      11.8851      0.00000
    121      12.0108      0.00000
    122      12.3462      0.00000
    123      12.4756      0.00000
    124      12.5955      0.00000
    125      12.7168      0.00000
    126      13.3159      0.00000
    127      13.4624      0.00000
    128      13.8667      0.00000

 k-point     2 :       0.5000    0.0000    0.0000
  band No.  band energies     occupation 
      1     -24.0853      1.00000
      2     -24.0853      1.00000
      3     -23.9781      1.00000
      4     -23.9781      1.00000
      5     -23.8070      1.00000
      6     -23.8070      1.00000
      7     -23.7847      1.00000
      8     -23.7847      1.00000
      9     -23.3192      1.00000
     10     -23.3192      1.00000
     11     -23.2644      1.00000
     12     -23.2644      1.00000
     13     -23.1503      1.00000
     14     -23.1503      1.00000
     15     -23.0523      1.00000
     16     -23.0523      1.00000
     17      -8.5322      1.00000
     18      -8.5322      1.00000
     19      -8.2849      1.00000
     20      -8.2849      1.00000
     21      -8.0093      1.00000
     22      -8.0093      1.00000
     23      -7.7809      1.00000
     24      -7.7809      1.00000
     25      -7.2470      1.00000
     26      -7.2470      1.00000
     27      -7.0522      1.00000
     28      -7.0522      1.00000
     29      -6.6365      1.00000
     30      -6.6365      1.00000
     31      -6.4421      1.00000
     32      -6.4421      1.00000
     33      -6.2832      1.00000
     34      -6.2832      1.00000
     35      -6.1134      1.00000
     36      -6.1134      1.00000
     37      -5.9933      1.00000
     38      -5.9933      1.00000
     39      -5.8421      1.00000
     40      -5.8421      1.00000
     41      -5.7899      1.00000
     42      -5.7899      1.00000
     43      -5.4383      1.00000
     44      -5.4383      1.00000
     45      -5.3088      1.00000
     46      -5.3088      1.00000
     47      -5.1537      1.00000
     48      -5.1537      1.00000
     49      -4.8810      1.00000
     50      -4.8810      1.00000
     51      -4.7106      1.00000
     52      -4.7106      1.00000
     53      -4.4882      1.00000
     54      -4.4882      1.00000
     55      -4.4426      1.00000
     56      -4.4426      1.00000
     57      -4.2657      1.00000
     58      -4.2657      1.00000
     59      -4.2406      1.00000
     60      -4.2406      1.00000
     61      -3.9652      1.00000
     62      -3.9652      1.00000
     63      -3.8671      1.00000
     64      -3.8671      1.00000
     65      -3.7409      1.00000
     66      -3.7409      1.00000
     67      -3.6391      1.00000
     68      -3.6391      1.00000
     69      -3.5964      1.00000
     70      -3.5964      1.00000
     71      -3.4700      1.00000
     72      -3.4700      1.00000
     73      -3.2818      1.00000
     74      -3.2818      1.00000
     75      -3.1891      1.00000
     76      -3.1891      1.00000
     77      -3.1252      1.00000
     78      -3.1252      1.00000
     79      -2.8526      1.00000
     80      -2.8526      1.00000
     81      -2.7866      1.00000
     82      -2.7866      1.00000
     83      -2.7582      1.00000
     84      -2.7582      1.00000
     85      -2.6332      1.00000
     86      -2.6332      1.00000
     87      -2.3632      1.00000
     88      -2.3632      1.00000
     89      -2.2565      1.00000
     90      -2.2565      1.00000
     91      -0.0531      0.00000
     92      -0.0531      0.00000
     93       0.1046      0.00000
     94       0.1046      0.00000
     95       2.3460      0.00000
     96       2.3460      0.00000
     97       4.8026      0.00000
     98       4.8026      0.00000
     99       5.8432      0.00000
    100       5.8432      0.00000
    101       7.3448      0.00000
    102       7.3448      0.00000
    103       7.5107      0.00000
    104       7.5107      0.00000
    105       7.7745      0.00000
    106       7.7745      0.00000
    107       8.4084      0.00000
    108       8.4084      0.00000
    109       9.4676      0.00000
    110       9.4676      0.00000
    111       9.7901      0.00000
    112       9.7901      0.00000
    113      10.2778      0.00000
    114      10.2778      0.00000
    115      10.7794      0.00000
    116      10.7794      0.00000
    117      11.1692      0.00000
    118      11.1692      0.00000
    119      11.6305      0.00000
    120      11.6305      0.00000
    121      12.1084      0.00000
    122      12.1084      0.00000
    123      12.6747      0.00000
    124      12.6747      0.00000
    125      13.2523      0.00000
    126      13.2523      0.00000
    127      13.3895      0.00000
    128      13.3895      0.00000

 k-point     3 :       0.0000    0.2000   -0.0000
  band No.  band energies     occupation 
      1     -24.0752      1.00000
      2     -24.0284      1.00000
      3     -23.9963      1.00000
      4     -23.9796      1.00000
      5     -23.8158      1.00000
      6     -23.8116      1.00000
      7     -23.8000      1.00000
      8     -23.7911      1.00000
      9     -23.3164      1.00000
     10     -23.2927      1.00000
     11     -23.2740      1.00000
     12     -23.2573      1.00000
     13     -23.1523      1.00000
     14     -23.1478      1.00000
     15     -23.0817      1.00000
     16     -23.0697      1.00000
     17      -8.5359      1.00000
     18      -8.5067      1.00000
     19      -8.3667      1.00000
     20      -8.3646      1.00000
     21      -7.9201      1.00000
     22      -7.9125      1.00000
     23      -7.8239      1.00000
     24      -7.8178      1.00000
     25      -7.1692      1.00000
     26      -7.1643      1.00000
     27      -7.1250      1.00000
     28      -6.9694      1.00000
     29      -6.6492      1.00000
     30      -6.6485      1.00000
     31      -6.4246      1.00000
     32      -6.3793      1.00000
     33      -6.3537      1.00000
     34      -6.1775      1.00000
     35      -6.1700      1.00000
     36      -6.0975      1.00000
     37      -5.9323      1.00000
     38      -5.8741      1.00000
     39      -5.8572      1.00000
     40      -5.7625      1.00000
     41      -5.6830      1.00000
     42      -5.6534      1.00000
     43      -5.5096      1.00000
     44      -5.4308      1.00000
     45      -5.3553      1.00000
     46      -5.2977      1.00000
     47      -5.2187      1.00000
     48      -5.0423      1.00000
     49      -4.9464      1.00000
     50      -4.8135      1.00000
     51      -4.7630      1.00000
     52      -4.7300      1.00000
     53      -4.6179      1.00000
     54      -4.6161      1.00000
     55      -4.5133      1.00000
     56      -4.4790      1.00000
     57      -4.4710      1.00000
     58      -4.3619      1.00000
     59      -4.3311      1.00000
     60      -4.3136      1.00000
     61      -4.0944      1.00000
     62      -3.9705      1.00000
     63      -3.8571      1.00000
     64      -3.8407      1.00000
     65      -3.7963      1.00000
     66      -3.7169      1.00000
     67      -3.6803      1.00000
     68      -3.6801      1.00000
     69      -3.5823      1.00000
     70      -3.5348      1.00000
     71      -3.4593      1.00000
     72      -3.4434      1.00000
     73      -3.4049      1.00000
     74      -3.3785      1.00000
     75      -3.2053      1.00000
     76      -3.1274      1.00000
     77      -2.9965      1.00000
     78      -2.9537      1.00000
     79      -2.8731      1.00000
     80      -2.8675      1.00000
     81      -2.7948      1.00000
     82      -2.7452      1.00000
     83      -2.7101      1.00000
     84      -2.6897      1.00000
     85      -2.6372      1.00000
     86      -2.5762      1.00000
     87      -2.4652      1.00000
     88      -2.3367      1.00000
     89      -2.2250      1.00000
     90      -2.2111      1.00000
     91      -0.1803      0.00000
     92      -0.0437      0.00000
     93      -0.0163      0.00000
     94       0.0503      0.00000
     95       2.3904      0.00000
     96       3.8043      0.00000
     97       3.9030      0.00000
     98       4.9472      0.00000
     99       5.4305      0.00000
    100       5.7911      0.00000
    101       6.8741      0.00000
    102       6.9599      0.00000
    103       7.0376      0.00000
    104       7.2903      0.00000
    105       7.9505      0.00000
    106       7.9920      0.00000
    107       8.6206      0.00000
    108       8.7353      0.00000
    109       8.8409      0.00000
    110       8.9255      0.00000
    111       9.5125      0.00000
    112      10.4977      0.00000
    113      10.5056      0.00000
    114      10.9349      0.00000
    115      11.0482      0.00000
    116      11.0765      0.00000
    117      11.4941      0.00000
    118      11.5343      0.00000
    119      11.5779      0.00000
    120      11.9637      0.00000
    121      12.1534      0.00000
    122      12.5728      0.00000
    123      12.7178      0.00000
    124      12.8236      0.00000
    125      13.1617      0.00000
    126      13.4304      0.00000
    127      13.6457      0.00000
    128      13.8021      0.00000

 k-point     4 :       0.5000    0.2000   -0.0000
  band No.  band energies     occupation 
      1     -24.0552      1.00000
      2     -24.0552      1.00000
      3     -23.9848      1.00000
      4     -23.9848      1.00000
      5     -23.8154      1.00000
      6     -23.8154      1.00000
      7     -23.7933      1.00000
      8     -23.7933      1.00000
      9     -23.3050      1.00000
     10     -23.3050      1.00000
     11     -23.2648      1.00000
     12     -23.2648      1.00000
     13     -23.1503      1.00000
     14     -23.1503      1.00000
     15     -23.0753      1.00000
     16     -23.0753      1.00000
     17      -8.5136      1.00000
     18      -8.5136      1.00000
     19      -8.3732      1.00000
     20      -8.3732      1.00000
     21      -7.9043      1.00000
     22      -7.9043      1.00000
     23      -7.8385      1.00000
     24      -7.8385      1.00000
     25      -7.1718      1.00000
     26      -7.1718      1.00000
     27      -7.0426      1.00000
     28      -7.0426      1.00000
     29      -6.6438      1.00000
     30      -6.6438      1.00000
     31      -6.4291      1.00000
     32      -6.4291      1.00000
     33      -6.2549      1.00000
     34      -6.2549      1.00000
     35      -6.0755      1.00000
     36      -6.0755      1.00000
     37      -5.9013      1.00000
     38      -5.9013      1.00000
     39      -5.8507      1.00000
     40      -5.8507      1.00000
     41      -5.6974      1.00000
     42      -5.6974      1.00000
     43      -5.4900      1.00000
     44      -5.4900      1.00000
     45      -5.3018      1.00000
     46      -5.3018      1.00000
     47      -5.0346      1.00000
     48      -5.0346      1.00000
     49      -4.9485      1.00000
     50      -4.9485      1.00000
     51      -4.7939      1.00000
     52      -4.7939      1.00000
     53      -4.6625      1.00000
     54      -4.6625      1.00000
     55      -4.4540      1.00000
     56      -4.4540      1.00000
     57      -4.4050      1.00000
     58      -4.4050      1.00000
     59      -4.3165      1.00000
     60      -4.3165      1.00000
     61      -3.9237      1.00000
     62      -3.9237      1.00000
     63      -3.8233      1.00000
     64      -3.8233      1.00000
     65      -3.7459      1.00000
     66      -3.7459      1.00000
     67      -3.7295      1.00000
     68      -3.7295      1.00000
     69      -3.6066      1.00000
     70      -3.6066      1.00000
     71      -3.4648      1.00000
     72      -3.4648      1.00000
     73      -3.4103      1.00000
     74      -3.4103      1.00000
     75      -3.1866      1.00000
     76      -3.1866      1.00000
     77      -3.0111      1.00000
     78      -3.0111      1.00000
     79      -2.8300      1.00000
     80      -2.8300      1.00000
     81      -2.7251      1.00000
     82      -2.7251      1.00000
     83      -2.7009      1.00000
     84      -2.7009      1.00000
     85      -2.6243      1.00000
     86      -2.6243      1.00000
     87      -2.3616      1.00000
     88      -2.3616      1.00000
     89      -2.2585      1.00000
     90      -2.2585      1.00000
     91      -0.1049      0.00000
     92      -0.1049      0.00000
     93       0.0079      0.00000
     94       0.0079      0.00000
     95       2.8292      0.00000
     96       2.8292      0.00000
     97       4.8135      0.00000
     98       4.8135      0.00000
     99       5.5115      0.00000
    100       5.5115      0.00000
    101       6.8454      0.00000
    102       6.8454      0.00000
    103       7.1910      0.00000
    104       7.1910      0.00000
    105       7.8234      0.00000
    106       7.8234      0.00000
    107       8.6436      0.00000
    108       8.6436      0.00000
    109       9.1807      0.00000
    110       9.1807      0.00000
    111      10.0154      0.00000
    112      10.0154      0.00000
    113      10.5798      0.00000
    114      10.5798      0.00000
    115      11.1377      0.00000
    116      11.1377      0.00000
    117      11.5384      0.00000
    118      11.5384      0.00000
    119      11.9084      0.00000
    120      11.9084      0.00000
    121      12.1991      0.00000
    122      12.1991      0.00000
    123      12.4902      0.00000
    124      12.4902      0.00000
    125      13.4310      0.00000
    126      13.4310      0.00000
    127      13.6050      0.00000
    128      13.6050      0.00000

 k-point     5 :       0.0000    0.4000   -0.0000
  band No.  band energies     occupation 
      1     -24.0063      1.00000
      2     -24.0017      1.00000
      3     -23.9939      1.00000
      4     -23.9756      1.00000
      5     -23.8496      1.00000
      6     -23.8227      1.00000
      7     -23.8219      1.00000
      8     -23.8057      1.00000
      9     -23.2780      1.00000
     10     -23.2688      1.00000
     11     -23.2658      1.00000
     12     -23.2620      1.00000
     13     -23.1545      1.00000
     14     -23.1473      1.00000
     15     -23.1251      1.00000
     16     -23.1209      1.00000
     17      -8.5422      1.00000
     18      -8.5318      1.00000
     19      -8.3952      1.00000
     20      -8.3779      1.00000
     21      -8.0216      1.00000
     22      -8.0111      1.00000
     23      -7.7040      1.00000
     24      -7.6841      1.00000
     25      -7.1522      1.00000
     26      -7.0336      1.00000
     27      -6.9853      1.00000
     28      -6.9652      1.00000
     29      -6.7120      1.00000
     30      -6.6322      1.00000
     31      -6.3247      1.00000
     32      -6.3095      1.00000
     33      -6.2338      1.00000
     34      -6.2009      1.00000
     35      -6.1168      1.00000
     36      -6.0558      1.00000
     37      -5.9292      1.00000
     38      -5.9201      1.00000
     39      -5.6476      1.00000
     40      -5.5867      1.00000
     41      -5.5653      1.00000
     42      -5.5583      1.00000
     43      -5.5290      1.00000
     44      -5.4906      1.00000
     45      -5.4503      1.00000
     46      -5.3192      1.00000
     47      -5.1092      1.00000
     48      -5.0825      1.00000
     49      -5.0048      1.00000
     50      -4.9807      1.00000
     51      -4.8630      1.00000
     52      -4.8073      1.00000
     53      -4.7678      1.00000
     54      -4.7613      1.00000
     55      -4.6659      1.00000
     56      -4.6000      1.00000
     57      -4.5526      1.00000
     58      -4.4452      1.00000
     59      -4.4013      1.00000
     60      -4.3923      1.00000
     61      -4.2130      1.00000
     62      -4.0270      1.00000
     63      -3.8789      1.00000
     64      -3.8369      1.00000
     65      -3.8121      1.00000
     66      -3.7461      1.00000
     67      -3.7137      1.00000
     68      -3.6831      1.00000
     69      -3.6425      1.00000
     70      -3.5670      1.00000
     71      -3.5552      1.00000
     72      -3.4886      1.00000
     73      -3.4720      1.00000
     74      -3.3754      1.00000
     75      -3.1737      1.00000
     76      -3.0662      1.00000
     77      -3.0041      1.00000
     78      -2.9454      1.00000
     79      -2.8078      1.00000
     80      -2.7777      1.00000
     81      -2.6803      1.00000
     82      -2.6225      1.00000
     83      -2.6041      1.00000
     84      -2.5921      1.00000
     85      -2.5851      1.00000
     86      -2.5605      1.00000
     87      -2.4486      1.00000
     88      -2.3565      1.00000
     89      -2.2068      1.00000
     90      -2.1940      1.00000
     91      -0.2342      0.00000
     92      -0.1832      0.00000
     93      -0.1685      0.00000
     94      -0.1262      0.00000
     95       3.6778      0.00000
     96       4.2471      0.00000
     97       4.5690      0.00000
     98       4.6596      0.00000
     99       5.0911      0.00000
    100       5.2617      0.00000
    101       6.2115      0.00000
    102       6.4333      0.00000
    103       6.5490      0.00000
    104       6.6079      0.00000
    105       7.5625      0.00000
    106       7.7469      0.00000
    107       8.2886      0.00000
    108       8.4728      0.00000
    109       9.0097      0.00000
    110       9.2060      0.00000
    111       9.9936      0.00000
    112      10.3432      0.00000
    113      10.5622      0.00000
    114      10.6371      0.00000
    115      11.3298      0.00000
    116      12.0144      0.00000
    117      12.2460      0.00000
    118      12.4883      0.00000
    119      12.7020      0.00000
    120      12.7677      0.00000
    121      12.8638      0.00000
    122      13.0405      0.00000
    123      13.3875      0.00000
    124      13.6401      0.00000
    125      13.6738      0.00000
    126      13.9296      0.00000
    127      14.0428      0.00000
    128      14.3201      0.00000

 k-point     6 :       0.5000    0.4000   -0.0000
  band No.  band energies     occupation 
      1     -24.0044      1.00000
      2     -24.0044      1.00000
      3     -23.9851      1.00000
      4     -23.9851      1.00000
[...]
 -0.014  -0.051   0.032 -13.814   0.031   0.003   0.008  -0.007
 -0.004  -0.003  -0.047   0.031 -13.801   0.001   0.000   0.009
  0.439   0.000  -0.021   0.003   0.001   0.399  -0.000   0.004
  0.000   0.450  -0.007   0.008   0.000  -0.000   0.397   0.001
 -0.021  -0.007   0.462  -0.007   0.009   0.004   0.001   0.394
  0.003   0.008  -0.007   0.444  -0.006  -0.001  -0.002   0.001
  0.001   0.000   0.009  -0.006   0.442  -0.000  -0.000  -0.002
  0.024  -0.000   0.013  -0.006  -0.011  -0.005   0.000  -0.002
 -0.002   0.000  -0.001   0.001   0.001   0.000  -0.000   0.000
  0.000   0.000  -0.000  -0.000  -0.000  -0.000  -0.000   0.000
 -0.000   0.000   0.000   0.000  -0.000   0.000  -0.000  -0.000
  0.000  -0.000  -0.000   0.000   0.000  -0.000   0.000   0.000
 -0.000  -0.000   0.000   0.000   0.000   0.000   0.000  -0.000
  0.000  -0.000  -0.000  -0.000   0.000  -0.000   0.000   0.000
 -0.000   0.000   0.000  -0.000  -0.000   0.000  -0.000  -0.000
 total augmentation occupancy for first ion, spin component:           1
  1.972   0.104   0.040   0.063   0.013  -0.179  -0.038  -0.013  -0.001   0.011  -0.076   0.112   0.000   0.000   0.000   0.000
  0.104   1.733  -0.110  -0.168  -0.021  -0.038  -0.118   0.019   0.037   0.010   0.008   0.011   0.000   0.000   0.000   0.000
  0.040  -0.110   1.972  -0.066  -0.009  -0.013   0.018  -0.176   0.022   0.005  -0.055   0.065   0.000   0.000   0.000   0.000
  0.063  -0.168  -0.066   1.903  -0.016  -0.001   0.038   0.022  -0.143   0.000  -0.015  -0.027   0.000   0.000   0.000   0.000
  0.013  -0.021  -0.009  -0.016   2.006   0.011   0.011   0.006   0.001  -0.166   0.048  -0.045   0.000   0.000   0.000   0.000
 -0.179  -0.038  -0.013  -0.001   0.011   0.157  -0.035  -0.001  -0.063  -0.051   0.124  -0.104   0.000   0.000   0.000   0.000
 -0.038  -0.118   0.018   0.038   0.011  -0.035   0.236   0.075   0.076   0.005  -0.024   0.018   0.000   0.000   0.000   0.000
 -0.013   0.019  -0.176   0.022   0.006  -0.001   0.075   0.126   0.016  -0.011   0.063  -0.045   0.000   0.000   0.000   0.000
 -0.001   0.037   0.022  -0.143   0.001  -0.063   0.076   0.016   0.111   0.020  -0.016   0.023   0.000   0.000   0.000   0.000
  0.011   0.010   0.005   0.000  -0.166  -0.051   0.005  -0.011   0.020   0.087  -0.065   0.062   0.000   0.000   0.000   0.000
 -0.076   0.008  -0.055  -0.015   0.048   0.124  -0.024   0.063  -0.016  -0.065   0.464  -0.286   0.000   0.000   0.000   0.000
  0.112   0.011   0.065  -0.027  -0.045  -0.104   0.018  -0.045   0.023   0.062  -0.286   0.258   0.000   0.000   0.000   0.000
  0.000   0.000   0.000   0.000   0.000   0.000   0.000   0.000   0.000   0.000   0.000   0.000   0.076  -0.006   0.024  -0.008
  0.000   0.000   0.000   0.000   0.000   0.000   0.000   0.000   0.000   0.000   0.000   0.000  -0.006   0.084  -0.003   0.001
  0.000   0.000   0.000   0.000   0.000   0.000   0.000   0.000   0.000   0.000   0.000   0.000   0.024  -0.003   0.051  -0.003
  0.000   0.000   0.000   0.000   0.000   0.000   0.000   0.000   0.000   0.000   0.000   0.000  -0.008   0.001  -0.003   0.001
  0.000   0.000   0.000   0.000   0.000   0.000   0.000   0.000   0.000   0.000   0.000   0.000   0.001  -0.008   0.000  -0.000
  0.000   0.000   0.000   0.000   0.000   0.000   0.000   0.000   0.000   0.000   0.000   0.000  -0.003   0.000  -0.005   0.000
 total augmentation occupancy for first ion, spin component:           2
  0.039  -0.097  -0.035  -0.064  -0.008  -0.033   0.055   0.019   0.036   0.005   0.006   0.057   0.000   0.000   0.000   0.000
 -0.097   0.275   0.105   0.175   0.018   0.056  -0.164  -0.059  -0.097  -0.011   0.017  -0.012   0.000   0.000   0.000   0.000
 -0.035   0.105   0.041   0.066   0.007   0.019  -0.059  -0.031  -0.036  -0.003   0.014   0.026   0.000   0.000   0.000   0.000
 -0.064   0.175   0.066   0.114   0.013   0.037  -0.099  -0.037  -0.072  -0.007   0.009  -0.017   0.000   0.000   0.000   0.000
 -0.008   0.018   0.007   0.013   0.002   0.005  -0.011  -0.003  -0.007  -0.011  -0.003  -0.023   0.000   0.000   0.000   0.000
 -0.033   0.056   0.019   0.037   0.005   0.014  -0.029  -0.010  -0.019  -0.003   0.002  -0.009   0.000   0.000   0.000   0.000
  0.055  -0.164  -0.059  -0.099  -0.011  -0.029   0.082   0.031   0.050   0.006  -0.009   0.006   0.000   0.000   0.000   0.000
  0.019  -0.059  -0.031  -0.037  -0.003  -0.010   0.031   0.014   0.019   0.002  -0.004  -0.001   0.000   0.000   0.000   0.000
  0.036  -0.097  -0.036  -0.072  -0.007  -0.019   0.050   0.019   0.033   0.004  -0.005   0.006   0.000   0.000   0.000   0.000
  0.005  -0.011  -0.003  -0.007  -0.011  -0.003   0.006   0.002   0.004   0.003  -0.001   0.003   0.000   0.000   0.000   0.000
  0.006   0.017   0.014   0.009  -0.003   0.002  -0.009  -0.004  -0.005  -0.001  -0.006   0.003   0.000   0.000   0.000   0.000
  0.057  -0.012   0.026  -0.017  -0.023  -0.009   0.006  -0.001   0.006   0.003   0.003   0.005   0.000   0.000   0.000   0.000
  0.000   0.000   0.000   0.000   0.000   0.000   0.000   0.000   0.000   0.000   0.000   0.000  -0.000   0.000  -0.000   0.000
  0.000   0.000   0.000   0.000   0.000   0.000   0.000   0.000   0.000   0.000   0.000   0.000   0.000  -0.001   0.000  -0.000
  0.000   0.000   0.000   0.000   0.000   0.000   0.000   0.000   0.000   0.000   0.000   0.000  -0.000   0.000  -0.000   0.000
  0.000   0.000   0.000   0.000   0.000   0.000   0.000   0.000   0.000   0.000   0.000   0.000   0.000  -0.000   0.000  -0.000
  0.000   0.000   0.000   0.000   0.000   0.000   0.000   0.000   0.000   0.000   0.000   0.000  -0.000   0.000  -0.000   0.000
  0.000   0.000   0.000   0.000   0.000   0.000   0.000   0.000   0.000   0.000   0.000   0.000   0.000  -0.000   0.000  -0.000


------------------------ aborting loop because EDIFF is reached ----------------------------------------


 


 total charge     
 
# of ion       s       p       d       tot
------------------------------------------
    1        0.158   0.137   8.895   9.190
    2        0.158   0.137   8.895   9.190
    3        0.526   0.429   8.445   9.399
    4        0.526   0.429   8.445   9.399
    5        0.526   0.429   8.445   9.399
    6        0.526   0.429   8.445   9.399
    7        1.746   4.268   0.000   6.014
    8        1.746   4.268   0.000   6.014
    9        1.746   4.268   0.000   6.014
   10        1.746   4.268   0.000   6.014
   11        1.745   4.276   0.000   6.021
   12        1.745   4.276   0.000   6.021
   13        1.742   4.281   0.000   6.022
   14        1.742   4.281   0.000   6.022
   15        1.742   4.281   0.000   6.022
   16        1.742   4.281   0.000   6.022
   17        1.743   4.276   0.000   6.018
   18        1.743   4.276   0.000   6.018
   19        1.743   4.276   0.000   6.018
   20        1.743   4.276   0.000   6.018
   21        1.745   4.276   0.000   6.021
   22        1.745   4.276   0.000   6.021
--------------------------------------------------
tot         30.321  70.391  51.569 152.281
 


 magnetization (x)
 
# of ion       s       p       d       tot
------------------------------------------
    1       -0.002  -0.001   0.471   0.468
    2       -0.002  -0.001   0.471   0.468
    3        0.001   0.001   0.054   0.056
    4        0.001   0.001   0.054   0.056
    5        0.001   0.001   0.054   0.056
    6        0.001   0.001   0.054   0.056
    7        0.000   0.020   0.000   0.020
    8        0.000   0.020   0.000   0.020
    9        0.000   0.020   0.000   0.020
   10        0.000   0.020   0.000   0.020
   11       -0.000   0.011   0.000   0.010
   12       -0.000   0.011   0.000   0.010
   13        0.002   0.087   0.000   0.090
   14        0.002   0.087   0.000   0.090
   15        0.002   0.087   0.000   0.090
   16        0.002   0.087   0.000   0.090
   17        0.002   0.073   0.000   0.074
   18        0.002   0.073   0.000   0.074
   19        0.002   0.073   0.000   0.074
   20        0.002   0.073   0.000   0.074
   21       -0.000   0.011   0.000   0.010
   22       -0.000   0.011   0.000   0.010
--------------------------------------------------
tot          0.016   0.765   1.158   1.939
 
    CHARGE:  cpu time    1.2566: real time    1.2567
    FORLOC:  cpu time    0.0273: real time    0.0273
    FORNL :  cpu time    7.1788: real time    7.1794
    STRESS:  cpu time   21.6597: real time   21.6610
    FORCOR:  cpu time    0.1859: real time    0.1863
    FORHAR:  cpu time    0.0375: real time    0.0378
    MIXING:  cpu time    0.0063: real time    0.0063
    OFIELD:  cpu time    0.0002: real time    0.0002

  FORCE on cell =-STRESS in cart. coord.  units (eV):
  Direction    XX          YY          ZZ          XY          YZ          ZX
  --------------------------------------------------------------------------------------
  Alpha Z   700.56228   700.56228   700.56228
  Ewald   -2862.21421 -5474.93619 -2562.43749     0.00000    21.87855     0.00000
  Hartree  2214.59210   871.49760  2372.78825    -0.00000    34.52244    -0.00000
  E(xc)    -947.87775  -953.48974  -946.42484     0.00000    -0.28195     0.00000
  Local   -2108.49171  1659.36149 -2552.68215    -0.00000   -60.38202     0.00000
  n-local  -937.37687  -941.56989  -933.00222     0.00000     0.56025     0.00000
  augment   530.40563   573.69496   524.46975     0.00000     1.09353     0.00000
  Kinetic  3409.70725  3564.28205  3396.06578     0.00000     2.72715    -0.00000
  Fock        0.00000     0.00000     0.00000     0.00000     0.00000     0.00000
  -------------------------------------------------------------------------------------
  Total      -0.69328    -0.59745    -0.66064     0.00000     0.11795     0.00000
  in kB      -3.11138    -2.68129    -2.96490     0.00000     0.52933     0.00000
  external pressure =       -2.92 kB  Pullay stress =        0.00 kB


 VOLUME and BASIS-vectors are now :
 -----------------------------------------------------------------------------
  energy-cutoff  :      520.00
  volume of cell :      357.00
      direct lattice vectors                 reciprocal lattice vectors
    11.384638000  0.000000000  0.000000000     0.087837663  0.000000000  0.000000000
     0.000000000  5.541187000  0.000000000     0.000000000  0.180466748 -0.164455500
     0.000000000  5.156988000  5.659068000     0.000000000  0.000000000  0.176707543

  length of vectors
    11.384638000  5.541187000  7.656342199     0.087837663  0.244159494  0.176707543


 FORCES acting on ions
    electron-ion (+dipol)            ewald-force                    non-local-force                 convergence-correction
 -----------------------------------------------------------------------------------------------
   0.199E-11 -.846E-11 0.101E-11   0.853E-13 0.977E-14 -.782E-13   0.785E-24 -.808E-22 -.139E-22   0.182E-12 0.333E-12 0.386E-13
   -.754E-13 0.507E-12 0.648E-13   0.000E+00 -.711E-14 -.355E-13   0.673E-23 -.515E-22 -.148E-22   0.106E-11 -.164E-12 0.756E-12
   0.451E+02 -.213E+02 -.677E+01   -.440E+02 0.215E+02 0.634E+01   -.104E+01 -.167E+00 0.436E+00   0.194E-01 -.166E-01 -.134E-01
   0.451E+02 0.213E+02 0.677E+01   -.440E+02 -.215E+02 -.634E+01   -.104E+01 0.167E+00 -.436E+00   0.194E-01 0.166E-01 0.134E-01
   -.451E+02 -.213E+02 -.677E+01   0.440E+02 0.215E+02 0.634E+01   0.104E+01 -.167E+00 0.436E+00   -.194E-01 -.166E-01 -.134E-01
   -.451E+02 0.213E+02 0.677E+01   0.440E+02 -.215E+02 -.634E+01   0.104E+01 0.167E+00 -.436E+00   -.194E-01 0.166E-01 0.134E-01
   0.857E+02 0.170E+02 -.147E+03   -.101E+03 -.198E+02 0.171E+03   0.153E+02 0.274E+01 -.242E+02   -.194E-01 -.892E-02 -.160E-01
   0.857E+02 -.170E+02 0.147E+03   -.101E+03 0.198E+02 -.171E+03   0.153E+02 -.274E+01 0.242E+02   -.194E-01 0.892E-02 0.160E-01
   -.857E+02 -.170E+02 0.147E+03   0.101E+03 0.198E+02 -.171E+03   -.153E+02 -.274E+01 0.242E+02   0.194E-01 0.892E-02 0.160E-01
   -.857E+02 0.170E+02 -.147E+03   0.101E+03 -.198E+02 0.171E+03   -.153E+02 0.274E+01 -.242E+02   0.194E-01 -.892E-02 -.160E-01
   0.114E+03 -.717E+02 0.110E+03   -.134E+03 0.735E+02 -.127E+03   0.206E+02 -.169E+01 0.168E+02   -.443E-02 -.100E+00 0.142E-01
   0.114E+03 0.717E+02 -.110E+03   -.134E+03 -.735E+02 0.127E+03   0.206E+02 0.169E+01 -.168E+02   -.443E-02 0.100E+00 -.142E-01
   0.561E+02 0.116E+03 0.810E+02   -.644E+02 -.128E+03 -.977E+02   0.827E+01 0.118E+02 0.168E+02   0.453E-02 0.142E+00 -.118E-01
   0.561E+02 -.116E+03 -.810E+02   -.644E+02 0.128E+03 0.977E+02   0.827E+01 -.118E+02 -.168E+02   0.453E-02 -.142E+00 0.118E-01
   -.561E+02 -.116E+03 -.810E+02   0.644E+02 0.128E+03 0.977E+02   -.827E+01 -.118E+02 -.168E+02   -.453E-02 -.142E+00 0.118E-01
   -.561E+02 0.116E+03 0.810E+02   0.644E+02 -.128E+03 -.977E+02   -.827E+01 0.118E+02 0.168E+02   -.453E-02 0.142E+00 -.118E-01
   0.133E+03 0.888E+02 0.111E+02   -.155E+03 -.945E+02 -.712E+01   0.224E+02 0.565E+01 -.400E+01   0.191E-02 0.121E+00 0.529E-01
   0.133E+03 -.888E+02 -.111E+02   -.155E+03 0.945E+02 0.712E+01   0.224E+02 -.565E+01 0.400E+01   0.191E-02 -.121E+00 -.529E-01
   -.133E+03 -.888E+02 -.111E+02   0.155E+03 0.945E+02 0.712E+01   -.224E+02 -.565E+01 0.400E+01   -.191E-02 -.121E+00 -.529E-01
   -.133E+03 0.888E+02 0.111E+02   0.155E+03 -.945E+02 -.712E+01   -.224E+02 0.565E+01 -.400E+01   -.191E-02 0.121E+00 0.529E-01
   -.114E+03 -.717E+02 0.110E+03   0.134E+03 0.735E+02 -.127E+03   -.206E+02 -.169E+01 0.168E+02   0.443E-02 -.100E+00 0.142E-01
   -.114E+03 0.717E+02 -.110E+03   0.134E+03 -.735E+02 0.127E+03   -.206E+02 0.169E+01 -.168E+02   0.443E-02 0.100E+00 -.142E-01
 -----------------------------------------------------------------------------------------------
   -.335E-11 -.503E-10 -.331E-10   0.142E-12 0.426E-13 -.284E-13   0.711E-14 0.444E-14 -.711E-14   -.143E-12 0.108E-11 0.561E-12
 
 
 POSITION                                       TOTAL-FORCE (eV/Angst)
 -----------------------------------------------------------------------------------
      5.69232      5.34909      2.82953         0.000000      0.000000      0.000000
      0.00000      2.77059      0.00000         0.000000      0.000000      0.000000
      7.74404      1.48496      0.07482         0.010928      0.001683     -0.009358
      2.05172      6.63472      2.75472         0.010928     -0.001683      0.009358
      9.33292      4.06345      2.90435        -0.010928      0.001683     -0.009358
      3.64060      9.21322      5.58425        -0.010928     -0.001683      0.009358
      2.56411      3.84264      1.52901         0.006259      0.000261      0.003100
      8.25642      4.27704      1.30053         0.006259     -0.000261     -0.003100
      8.82053      6.85554      4.13006        -0.006259     -0.000261     -0.003100
      3.12821      6.42113      4.35854        -0.006259      0.000261      0.003100
      1.97999      9.08830      4.55744        -0.002892      0.008988      0.002088
      7.67231      4.18837      3.93116        -0.002892     -0.008988     -0.002088
      0.98821      1.17146      1.07248        -0.015150     -0.003140     -0.011936
      6.68053      6.94822      1.75706        -0.015150      0.003140      0.011936
     10.39643      9.52671      4.58659         0.015150      0.003140      0.011936
      4.70411      3.74996      3.90201         0.015150     -0.003140     -0.011936
      0.36139      6.75489      3.79185        -0.007319     -0.000431      0.012930
      6.05371      6.52178      4.69675        -0.007319      0.000431     -0.012930
     11.02324      3.94328      1.86722         0.007319      0.000431     -0.012930
      5.33093      4.17640      0.96232         0.007319     -0.000431      0.012930
      3.71233      6.50981      1.72791         0.002892      0.008988      0.002088
      9.40464      1.60987      1.10163         0.002892     -0.008988     -0.002088
 -----------------------------------------------------------------------------------
    total drift:                               -0.000000     -0.000000     -0.000000


--------------------------------------------------------------------------------------------------------



  FREE ENERGIE OF THE ION-ELECTRON SYSTEM (eV)
  ---------------------------------------------------
  free  energy   TOTEN  =       -72.43027190 eV

  energy  without entropy=      -72.43026940  energy(sigma->0) =      -72.43027065
 


--------------------------------------------------------------------------------------------------------


    POTLOK:  cpu time    2.2406: real time    2.2407


--------------------------------------------------------------------------------------------------------


     LOOP+:  cpu time  380.6910: real time  383.2896
    4ORBIT:  cpu time    0.0000: real time    0.0000
 


 total charge     
 
# of ion       s       p       d       tot
------------------------------------------
    1        0.158   0.137   8.895   9.190
    2        0.158   0.137   8.895   9.190
    3        0.526   0.429   8.445   9.399
    4        0.526   0.429   8.445   9.399
    5        0.526   0.429   8.445   9.399
    6        0.526   0.429   8.445   9.399
    7        1.746   4.268   0.000   6.014
    8        1.746   4.268   0.000   6.014
    9        1.746   4.268   0.000   6.014
   10        1.746   4.268   0.000   6.014
   11        1.745   4.276   0.000   6.021
   12        1.745   4.276   0.000   6.021
   13        1.742   4.281   0.000   6.022
   14        1.742   4.281   0.000   6.022
   15        1.742   4.281   0.000   6.022
   16        1.742   4.281   0.000   6.022
   17        1.743   4.276   0.000   6.018
   18        1.743   4.276   0.000   6.018
   19        1.743   4.276   0.000   6.018
   20        1.743   4.276   0.000   6.018
   21        1.745   4.276   0.000   6.021
   22        1.745   4.276   0.000   6.021
--------------------------------------------------
tot         30.321  70.391  51.569 152.281
 


 magnetization (x)
 
# of ion       s       p       d       tot
------------------------------------------
    1       -0.002  -0.001   0.471   0.468
    2       -0.002  -0.001   0.471   0.468
    3        0.001   0.001   0.054   0.056
    4        0.001   0.001   0.054   0.056
    5        0.001   0.001   0.054   0.056
    6        0.001   0.001   0.054   0.056
    7        0.000   0.020   0.000   0.020
    8        0.000   0.020   0.000   0.020
    9        0.000   0.020   0.000   0.020
   10        0.000   0.020   0.000   0.020
   11       -0.000   0.011   0.000   0.010
   12       -0.000   0.011   0.000   0.010
   13        0.002   0.087   0.000   0.090
   14        0.002   0.087   0.000   0.090
   15        0.002   0.087   0.000   0.090
   16        0.002   0.087   0.000   0.090
   17        0.002   0.073   0.000   0.074
   18        0.002   0.073   0.000   0.074
   19        0.002   0.073   0.000   0.074
   20        0.002   0.073   0.000   0.074
   21       -0.000   0.011   0.000   0.010
   22       -0.000   0.011   0.000   0.010
--------------------------------------------------
tot          0.016   0.765   1.158   1.939
 

 total amount of memory used by VASP MPI-rank0   106241. kBytes
=======================================================================

   base      :      30000. kBytes
   nonlr-proj:      14264. kBytes
   fftplans  :       9700. kBytes
   grid      :      23659. kBytes
   one-center:        684. kBytes
   wavefun   :      27934. kBytes
 
  
  
 General timing and accounting informations for this job:
 ========================================================
  
                  Total CPU time used (sec):      488.612
                            User time (sec):      456.081
                          System time (sec):       32.531
                         Elapsed time (sec):      494.818
  
                   Maximum memory used (kb):      384328.
                   Average memory used (kb):           0.
  
                          Minor page faults:        42691
                          Major page faults:           10
                 Voluntary context switches:         1013
