 vasp.6.2.1 16May21 (build Jul 28 2021 23:24:15) complex                        
  
 executed on      IFC19_CrayMPICH date 2022.01.03  19:54:22
 running  128 mpi-ranks, with    1 threads/rank
 distrk:  each k-point on    8 cores,   16 groups
 distr:  one band on NCORE=   4 cores,    2 groups


--------------------------------------------------------------------------------------------------------


 INCAR:
   ENCUT = 450.000000
   SIGMA = 0.050000
   EDIFF = 1.00e-05
   ALGO = fast
   GGA = RP
   PREC = accurate
   ISMEAR = 0
   ISYM = 0
   KPAR = 16
   LMAXMIX = 4
   LORBIT = 11
   NELM = 120
   NSW = 0
   IVDW = 0
   NCORE = 4
   LAECHG = .TRUE.
   LASPH = .TRUE.
   LCHARG = .TRUE.
   LVHAR = .TRUE.
   LWAVE = .TRUE.

 POTCAR:    PAW_PBE Na_pv 19Sep2006               
 POTCAR:    PAW_PBE Pd 04Jan2005                  
 POTCAR:    PAW_PBE Na_pv 19Sep2006               
   VRHFIN =Na: p6s1                                                                                 
   LEXCH  = PE                                                                                      
   EATOM  =   766.0439 eV,   56.3026 Ry                                                             
                                                                                                    
   TITEL  = PAW_PBE Na_pv 19Sep2006                                                                 
   LULTRA =        F    use ultrasoft PP ?                                                          
   IUNSCR =        1    unscreen: 0-lin 1-nonlin 2-no                                               
   RPACOR =    1.800    partial core radius                                                         
   POMASS =   22.990; ZVAL   =    7.000    mass and valenz                                          
   RCORE  =    2.200    outmost cutoff radius                                                       
   RWIGS  =    2.200; RWIGS  =    1.164    wigner-seitz radius (au A)                               
   ENMAX  =  259.561; ENMIN  =  194.671 eV                                                          
   ICORE  =        2    local potential                                                             
   LCOR   =        T    correct aug charges                                                         
   LPAW   =        T    paw PP                                                                      
   EAUG   =  368.056                                                                                
   DEXC   =    0.000                                                                                
   RMAX   =    2.245    core radius for proj-oper                                                   
   RAUG   =    1.300    factor for augmentation sphere                                              
   RDEP   =    2.259    radius for radial grids                                                     
   RDEPT  =    1.738    core radius for aug-charge                                                  
                                                                                                    
   Atomic configuration                                                                             
    5 entries                                                                                       
     n  l   j            E        occ.                                                              
     1  0  0.50     -1033.6933   2.0000                                                             
     2  0  0.50       -56.7526   2.0000                                                             
     2  1  1.50       -28.6721   6.0000                                                             
     3  0  0.50        -2.7440   1.0000                                                             
     3  2  1.50        -1.3606   0.0000                                                             
   Description                                                                                      
     l       E           TYP  RCUT    TYP  RCUT                                                     
     1    -28.6720912     23  2.000                                                                 
     1      6.8029130     23  2.000                                                                 
     0     -2.7439560     23  2.200                                                                 
     0     34.0145650     23  2.200                                                                 
     2     -1.3605826     23  2.200                                                                 
  local pseudopotential read in
  partial core-charges read in
  partial kinetic energy density read in
  atomic valenz-charges read in
  non local Contribution for L=           1  read in
    real space projection operators read in
  non local Contribution for L=           1  read in
    real space projection operators read in
  non local Contribution for L=           0  read in
    real space projection operators read in
  non local Contribution for L=           0  read in
    real space projection operators read in
    PAW grid and wavefunctions read in
 
   number of l-projection  operators is LMAX  =           4
   number of lm-projection operators is LMMAX =           8
 
 POTCAR:    PAW_PBE Pd 04Jan2005                  
   VRHFIN =Pd : s1 d9                                                                               
   LEXCH  = PE                                                                                      
   EATOM  =   809.7530 eV,   59.5152 Ry                                                             
                                                                                                    
   TITEL  = PAW_PBE Pd 04Jan2005                                                                    
   LULTRA =        F    use ultrasoft PP ?                                                          
   IUNSCR =        1    unscreen: 0-lin 1-nonlin 2-no                                               
   RPACOR =    2.000    partial core radius                                                         
   POMASS =  106.420; ZVAL   =   10.000    mass and valenz                                          
   RCORE  =    2.600    outmost cutoff radius                                                       
   RWIGS  =    2.710; RWIGS  =    1.434    wigner-seitz radius (au A)                               
   ENMAX  =  250.925; ENMIN  =  188.194 eV                                                          
   ICORE  =        3    local potential                                                             
   LCOR   =        T    correct aug charges                                                         
   LPAW   =        T    paw PP                                                                      
   EAUG   =  416.230                                                                                
   DEXC   =    0.000                                                                                
   RMAX   =    2.653    core radius for proj-oper                                                   
   RAUG   =    1.300    factor for augmentation sphere                                              
   RDEP   =    2.734    radius for radial grids                                                     
   RDEPT  =    2.103    core radius for aug-charge                                                  
                                                                                                    
   Atomic configuration                                                                             
   12 entries                                                                                       
     n  l   j            E        occ.                                                              
     1  0  0.50    -24164.6631   2.0000                                                             
     2  0  0.50     -3530.9218   2.0000                                                             
     2  1  1.50     -3165.6822   6.0000                                                             
     3  0  0.50      -639.4577   2.0000                                                             
     3  1  1.50      -519.4532   6.0000                                                             
     3  2  2.50      -328.9757  10.0000                                                             
     4  0  0.50       -88.7014   2.0000                                                             
     4  1  1.50       -54.4540   6.0000                                                             
     4  2  2.50        -6.6878   9.0000                                                             
     5  0  0.50        -4.3543   1.0000                                                             
     5  1  0.50        -1.3606   0.0000                                                             
     4  3  2.50        -1.3606   0.0000                                                             
   Description                                                                                      
     l       E           TYP  RCUT    TYP  RCUT                                                     
     2     -6.6878251     23  2.400                                                                 
     2     -8.0484077     23  2.400                                                                 
     0     -4.3542939     23  2.400                                                                 
     0      4.3406793     23  2.400                                                                 
     1     -4.0817478     23  2.600                                                                 
     1     15.8380318     23  2.600                                                                 
     3     -4.0817478     23  2.400                                                                 
  local pseudopotential read in
  partial core-charges read in
  partial kinetic energy density read in
  atomic valenz-charges read in
  non local Contribution for L=           2  read in
    real space projection operators read in
  non local Contribution for L=           2  read in
    real space projection operators read in
  non local Contribution for L=           0  read in
    real space projection operators read in
  non local Contribution for L=           0  read in
    real space projection operators read in
  non local Contribution for L=           1  read in
    real space projection operators read in
  non local Contribution for L=           1  read in
    real space projection operators read in
    PAW grid and wavefunctions read in
 
   number of l-projection  operators is LMAX  =           6
   number of lm-projection operators is LMMAX =          18
 
 -----------------------------------------------------------------------------
|                                                                             |
|               ----> ADVICE to this user running VASP <----                  |
|                                                                             |
|     You enforced a specific xc type in the INCAR file but a different       |
|     type was found in the POTCAR file.                                      |
|     I HOPE YOU KNOW WHAT YOU ARE DOING!                                     |
|                                                                             |
 -----------------------------------------------------------------------------

  PAW_PBE Na_pv 19Sep2006               :
 energy of atom  1       EATOM= -766.0439
 kinetic energy error for atom=    0.0042 (will be added to EATOM!!)
  PAW_PBE Pd 04Jan2005                  :
 energy of atom  2       EATOM= -809.7530
 kinetic energy error for atom=    0.0051 (will be added to EATOM!!)
 
 
 POSCAR: Na Pd
  positions in cartesian coordinates
  No initial velocities read in
 exchange correlation table for  LEXCH =        9
   RHO(1)=    0.500       N(1)  =     2000
   RHO(2)=  100.500       N(2)  =     4000
 


--------------------------------------------------------------------------------------------------------


 ion  position               nearest neighbor table
   1  0.250  0.750  0.750-
   2  0.250  0.250  0.750-
   3  0.500  0.000  0.000-
   4  0.250  0.250  0.250-
   5  0.250  0.750  0.250-
   6  0.500  0.500  0.500-
   7  0.750  0.750  0.250-
   8  0.750  0.250  0.250-
   9  0.000  0.000  0.500-
  10  0.750  0.250  0.750-
  11  0.750  0.750  0.750-
  12  0.000  0.500  0.000-
  13  0.000  0.000  0.000-
  14  0.000  0.500  0.500-
  15  0.500  0.000  0.500-
  16  0.500  0.500  0.000-
 

IMPORTANT INFORMATION: All symmetrisations will be switched off!
NOSYMM: (Re-)initialisation of all symmetry stuff for point group C_1.


----------------------------------------------------------------------------------------

                                     Primitive cell                                     

  volume of cell :     378.1809

  direct lattice vectors                    reciprocal lattice vectors
     7.231580000  0.000000000  0.000000000     0.138282367 -0.000000000  0.000000000
     0.000000000  7.231580000  0.000000000     0.000000000  0.138282367  0.000000000
     0.000000000  0.000000000  7.231580000    -0.000000000 -0.000000000  0.138282367

  length of vectors
     7.231580000  7.231580000  7.231580000     0.138282367  0.138282367  0.138282367

  position of ions in fractional coordinates (direct lattice)
     0.250000000  0.750000000  0.750000000
     0.250000000  0.250000000  0.750000000
     0.500000000  0.000000000  0.000000000
     0.250000000  0.250000000  0.250000000
     0.250000000  0.750000000  0.250000000
     0.500000000  0.500000000  0.500000000
     0.750000000  0.750000000  0.250000000
     0.750000000  0.250000000  0.250000000
     0.000000000  0.000000000  0.500000000
     0.750000000  0.250000000  0.750000000
     0.750000000  0.750000000  0.750000000
     0.000000000  0.500000000  1.000000000
     0.000000000  0.000000000  0.000000000
     0.000000000  0.500000000  0.500000000
     0.500000000  0.000000000  0.500000000
     0.500000000  0.500000000  0.000000000

  ion indices of the primitive-cell ions
   primitive index   ion index
                 1           1
                 2           2
                 3           3
                 4           4
                 5           5
                 6           6
                 7           7
                 8           8
                 9           9
                10          10
                11          11
                12          12
                13          13
                14          14
                15          15
                16          16

----------------------------------------------------------------------------------------

 
 
 KPOINTS: KPOINTS created by Atomic Simulation Env

Automatic generation of k-mesh.
 Grid dimensions read from file:
 generate k-points for:    7    7    7

 Generating k-lattice:

  Cartesian coordinates                     Fractional coordinates (reciprocal lattice)
     0.019754624 -0.000000000  0.000000000     0.142857143  0.000000000  0.000000000
     0.000000000  0.019754624  0.000000000     0.000000000  0.142857143  0.000000000
    -0.000000000 -0.000000000  0.019754624     0.000000000 -0.000000000  0.142857143

  Length of vectors
     0.019754624  0.019754624  0.019754624

  Shift w.r.t. Gamma in fractional coordinates (k-lattice)
     0.000000000  0.000000000  0.000000000

 
 Subroutine IBZKPT returns following result:
 ===========================================
 
 Found    172 irreducible k-points:
 
 Following reciprocal coordinates:
            Coordinates               Weight
  0.000000  0.000000  0.000000      1.000000
  0.142857 -0.000000  0.000000      2.000000
  0.000000  0.142857  0.000000      2.000000
 -0.000000 -0.000000  0.142857      2.000000
  0.285714 -0.000000  0.000000      2.000000
  0.000000  0.285714  0.000000      2.000000
 -0.000000 -0.000000  0.285714      2.000000
  0.428571 -0.000000  0.000000      2.000000
  0.000000  0.428571  0.000000      2.000000
 -0.000000 -0.000000  0.428571      2.000000
  0.142857  0.142857  0.000000      2.000000
 -0.000000  0.142857  0.142857      2.000000
  0.142857  0.000000  0.142857      2.000000
 -0.142857  0.142857  0.000000      2.000000
 -0.142857  0.000000  0.142857      2.000000
 -0.000000 -0.142857  0.142857      2.000000
  0.285714  0.142857  0.000000      2.000000
 -0.000000  0.285714  0.142857      2.000000
  0.142857 -0.000000  0.285714      2.000000
 -0.142857  0.285714  0.000000      2.000000
 -0.285714  0.000000  0.142857      2.000000
 -0.000000  0.142857  0.285714      2.000000
 -0.000000 -0.285714  0.142857      2.000000
 -0.142857 -0.000000  0.285714      2.000000
  0.285714 -0.000000  0.142857      2.000000
 -0.000000 -0.142857  0.285714      2.000000
  0.285714 -0.142857  0.000000      2.000000
  0.142857  0.285714  0.000000      2.000000
  0.428571  0.142857  0.000000      2.000000
 -0.000000  0.428571  0.142857      2.000000
  0.142857 -0.000000  0.428571      2.000000
 -0.142857  0.428571  0.000000      2.000000
 -0.428571 -0.000000  0.142857      2.000000
 -0.000000  0.142857  0.428571      2.000000
 -0.000000 -0.428571  0.142857      2.000000
 -0.142857 -0.000000  0.428571      2.000000
  0.428571 -0.000000  0.142857      2.000000
 -0.000000 -0.142857  0.428571      2.000000
  0.428571 -0.142857  0.000000      2.000000
  0.142857  0.428571  0.000000      2.000000
  0.285714  0.285714  0.000000      2.000000
 -0.000000  0.285714  0.285714      2.000000
  0.285714 -0.000000  0.285714      2.000000
 -0.285714  0.285714  0.000000      2.000000
 -0.285714  0.000000  0.285714      2.000000
 -0.000000 -0.285714  0.285714      2.000000
  0.428571  0.285714  0.000000      2.000000
 -0.000000  0.428571  0.285714      2.000000
  0.285714 -0.000000  0.428571      2.000000
 -0.285714  0.428571  0.000000      2.000000
 -0.428571  0.000000  0.285714      2.000000
 -0.000000  0.285714  0.428571      2.000000
 -0.000000 -0.428571  0.285714      2.000000
 -0.285714  0.000000  0.428571      2.000000
  0.428571 -0.000000  0.285714      2.000000
 -0.000000 -0.285714  0.428571      2.000000
  0.428571 -0.285714  0.000000      2.000000
  0.285714  0.428571  0.000000      2.000000
  0.428571  0.428571  0.000000      2.000000
 -0.000000  0.428571  0.428571      2.000000
  0.428571 -0.000000  0.428571      2.000000
 -0.428571  0.428571  0.000000      2.000000
 -0.428571  0.000000  0.428571      2.000000
 -0.000000 -0.428571  0.428571      2.000000
  0.142857  0.142857  0.142857      2.000000
 -0.142857  0.142857  0.142857      2.000000
 -0.142857 -0.142857  0.142857      2.000000
  0.142857 -0.142857  0.142857      2.000000
  0.285714  0.142857  0.142857      2.000000
  0.142857  0.285714  0.142857      2.000000
  0.142857  0.142857  0.285714      2.000000
 -0.142857  0.285714  0.142857      2.000000
 -0.285714  0.142857  0.142857      2.000000
 -0.142857  0.142857  0.285714      2.000000
 -0.285714 -0.142857  0.142857      2.000000
 -0.142857 -0.285714  0.142857      2.000000
 -0.142857 -0.142857  0.285714      2.000000
  0.142857 -0.285714  0.142857      2.000000
  0.285714 -0.142857  0.142857      2.000000
  0.142857 -0.142857  0.285714      2.000000
  0.428571  0.142857  0.142857      2.000000
  0.142857  0.428571  0.142857      2.000000
  0.142857  0.142857  0.428571      2.000000
 -0.142857  0.428571  0.142857      2.000000
 -0.428571  0.142857  0.142857      2.000000
 -0.142857  0.142857  0.428571      2.000000
 -0.428571 -0.142857  0.142857      2.000000
 -0.142857 -0.428571  0.142857      2.000000
 -0.142857 -0.142857  0.428571      2.000000
  0.142857 -0.428571  0.142857      2.000000
  0.428571 -0.142857  0.142857      2.000000
  0.142857 -0.142857  0.428571      2.000000
  0.285714  0.285714  0.142857      2.000000
  0.142857  0.285714  0.285714      2.000000
  0.285714  0.142857  0.285714      2.000000
 -0.285714  0.285714  0.142857      2.000000
 -0.285714  0.142857  0.285714      2.000000
 -0.142857  0.285714  0.285714      2.000000
 -0.285714 -0.285714  0.142857      2.000000
 -0.142857 -0.285714  0.285714      2.000000
 -0.285714 -0.142857  0.285714      2.000000
  0.285714 -0.285714  0.142857      2.000000
  0.285714 -0.142857  0.285714      2.000000
  0.142857 -0.285714  0.285714      2.000000
  0.428571  0.285714  0.142857      2.000000
  0.142857  0.428571  0.285714      2.000000
  0.285714  0.142857  0.428571      2.000000
 -0.285714  0.428571  0.142857      2.000000
 -0.428571  0.142857  0.285714      2.000000
 -0.142857  0.285714  0.428571      2.000000
 -0.428571 -0.285714  0.142857      2.000000
 -0.142857 -0.428571  0.285714      2.000000
 -0.285714 -0.142857  0.428571      2.000000
  0.285714 -0.428571  0.142857      2.000000
  0.428571 -0.142857  0.285714      2.000000
  0.142857 -0.285714  0.428571      2.000000
  0.142857 -0.428571 -0.285714      2.000000
  0.285714 -0.142857 -0.428571      2.000000
  0.428571 -0.285714 -0.142857      2.000000
  0.142857  0.285714 -0.428571      2.000000
  0.285714  0.428571 -0.142857      2.000000
  0.428571  0.142857 -0.285714      2.000000
 -0.285714  0.142857 -0.428571      2.000000
 -0.428571  0.285714 -0.142857      2.000000
 -0.142857  0.428571 -0.285714      2.000000
 -0.428571 -0.142857 -0.285714      2.000000
 -0.285714 -0.428571 -0.142857      2.000000
 -0.142857 -0.285714 -0.428571      2.000000
  0.428571  0.428571  0.142857      2.000000
  0.142857  0.428571  0.428571      2.000000
  0.428571  0.142857  0.428571      2.000000
 -0.428571  0.428571  0.142857      2.000000
 -0.428571  0.142857  0.428571      2.000000
 -0.142857  0.428571  0.428571      2.000000
 -0.428571 -0.428571  0.142857      2.000000
 -0.142857 -0.428571  0.428571      2.000000
 -0.428571 -0.142857  0.428571      2.000000
  0.428571 -0.428571  0.142857      2.000000
  0.428571 -0.142857  0.428571      2.000000
  0.142857 -0.428571  0.428571      2.000000
  0.285714  0.285714  0.285714      2.000000
 -0.285714  0.285714  0.285714      2.000000
 -0.285714 -0.285714  0.285714      2.000000
  0.285714 -0.285714  0.285714      2.000000
  0.428571  0.285714  0.285714      2.000000
  0.285714  0.428571  0.285714      2.000000
  0.285714  0.285714  0.428571      2.000000
 -0.285714  0.428571  0.285714      2.000000
 -0.428571  0.285714  0.285714      2.000000
 -0.285714  0.285714  0.428571      2.000000
 -0.428571 -0.285714  0.285714      2.000000
 -0.285714 -0.428571  0.285714      2.000000
 -0.285714 -0.285714  0.428571      2.000000
  0.285714 -0.428571  0.285714      2.000000
  0.428571 -0.285714  0.285714      2.000000
  0.285714 -0.285714  0.428571      2.000000
  0.428571  0.428571  0.285714      2.000000
  0.285714  0.428571  0.428571      2.000000
  0.428571  0.285714  0.428571      2.000000
 -0.428571  0.428571  0.285714      2.000000
 -0.428571  0.285714  0.428571      2.000000
 -0.285714  0.428571  0.428571      2.000000
 -0.428571 -0.428571  0.285714      2.000000
 -0.285714 -0.428571  0.428571      2.000000
 -0.428571 -0.285714  0.428571      2.000000
  0.428571 -0.428571  0.285714      2.000000
  0.428571 -0.285714  0.428571      2.000000
  0.285714 -0.428571  0.428571      2.000000
  0.428571  0.428571  0.428571      2.000000
 -0.428571  0.428571  0.428571      2.000000
 -0.428571 -0.428571  0.428571      2.000000
  0.428571 -0.428571  0.428571      2.000000
 
 Following cartesian coordinates:
            Coordinates               Weight
  0.000000  0.000000  0.000000      1.000000
  0.019755 -0.000000  0.000000      2.000000
  0.000000  0.019755  0.000000      2.000000
 -0.000000 -0.000000  0.019755      2.000000
  0.039509 -0.000000  0.000000      2.000000
  0.000000  0.039509  0.000000      2.000000
 -0.000000 -0.000000  0.039509      2.000000
  0.059264 -0.000000  0.000000      2.000000
  0.000000  0.059264  0.000000      2.000000
 -0.000000 -0.000000  0.059264      2.000000
  0.019755  0.019755  0.000000      2.000000
 -0.000000  0.019755  0.019755      2.000000
  0.019755 -0.000000  0.019755      2.000000
 -0.019755  0.019755  0.000000      2.000000
 -0.019755  0.000000  0.019755      2.000000
 -0.000000 -0.019755  0.019755      2.000000
  0.039509  0.019755  0.000000      2.000000
 -0.000000  0.039509  0.019755      2.000000
  0.019755 -0.000000  0.039509      2.000000
 -0.019755  0.039509  0.000000      2.000000
 -0.039509  0.000000  0.019755      2.000000
 -0.000000  0.019755  0.039509      2.000000
 -0.000000 -0.039509  0.019755      2.000000
 -0.019755  0.000000  0.039509      2.000000
  0.039509 -0.000000  0.019755      2.000000
 -0.000000 -0.019755  0.039509      2.000000
  0.039509 -0.019755  0.000000      2.000000
  0.019755  0.039509  0.000000      2.000000
  0.059264  0.019755  0.000000      2.000000
 -0.000000  0.059264  0.019755      2.000000
  0.019755 -0.000000  0.059264      2.000000
 -0.019755  0.059264  0.000000      2.000000
 -0.059264  0.000000  0.019755      2.000000
 -0.000000  0.019755  0.059264      2.000000
 -0.000000 -0.059264  0.019755      2.000000
 -0.019755  0.000000  0.059264      2.000000
  0.059264 -0.000000  0.019755      2.000000
 -0.000000 -0.019755  0.059264      2.000000
  0.059264 -0.019755  0.000000      2.000000
  0.019755  0.059264  0.000000      2.000000
  0.039509  0.039509  0.000000      2.000000
 -0.000000  0.039509  0.039509      2.000000
  0.039509 -0.000000  0.039509      2.000000
 -0.039509  0.039509  0.000000      2.000000
 -0.039509  0.000000  0.039509      2.000000
 -0.000000 -0.039509  0.039509      2.000000
  0.059264  0.039509  0.000000      2.000000
 -0.000000  0.059264  0.039509      2.000000
  0.039509 -0.000000  0.059264      2.000000
 -0.039509  0.059264  0.000000      2.000000
 -0.059264  0.000000  0.039509      2.000000
 -0.000000  0.039509  0.059264      2.000000
 -0.000000 -0.059264  0.039509      2.000000
 -0.039509  0.000000  0.059264      2.000000
  0.059264 -0.000000  0.039509      2.000000
 -0.000000 -0.039509  0.059264      2.000000
  0.059264 -0.039509  0.000000      2.000000
  0.039509  0.059264  0.000000      2.000000
  0.059264  0.059264  0.000000      2.000000
 -0.000000  0.059264  0.059264      2.000000
  0.059264 -0.000000  0.059264      2.000000
 -0.059264  0.059264  0.000000      2.000000
 -0.059264  0.000000  0.059264      2.000000
 -0.000000 -0.059264  0.059264      2.000000
  0.019755  0.019755  0.019755      2.000000
 -0.019755  0.019755  0.019755      2.000000
 -0.019755 -0.019755  0.019755      2.000000
  0.019755 -0.019755  0.019755      2.000000
  0.039509  0.019755  0.019755      2.000000
  0.019755  0.039509  0.019755      2.000000
  0.019755  0.019755  0.039509      2.000000
 -0.019755  0.039509  0.019755      2.000000
 -0.039509  0.019755  0.019755      2.000000
 -0.019755  0.019755  0.039509      2.000000
 -0.039509 -0.019755  0.019755      2.000000
 -0.019755 -0.039509  0.019755      2.000000
 -0.019755 -0.019755  0.039509      2.000000
  0.019755 -0.039509  0.019755      2.000000
  0.039509 -0.019755  0.019755      2.000000
  0.019755 -0.019755  0.039509      2.000000
  0.059264  0.019755  0.019755      2.000000
  0.019755  0.059264  0.019755      2.000000
  0.019755  0.019755  0.059264      2.000000
 -0.019755  0.059264  0.019755      2.000000
 -0.059264  0.019755  0.019755      2.000000
 -0.019755  0.019755  0.059264      2.000000
 -0.059264 -0.019755  0.019755      2.000000
 -0.019755 -0.059264  0.019755      2.000000
 -0.019755 -0.019755  0.059264      2.000000
  0.019755 -0.059264  0.019755      2.000000
  0.059264 -0.019755  0.019755      2.000000
  0.019755 -0.019755  0.059264      2.000000
  0.039509  0.039509  0.019755      2.000000
  0.019755  0.039509  0.039509      2.000000
  0.039509  0.019755  0.039509      2.000000
 -0.039509  0.039509  0.019755      2.000000
 -0.039509  0.019755  0.039509      2.000000
 -0.019755  0.039509  0.039509      2.000000
 -0.039509 -0.039509  0.019755      2.000000
 -0.019755 -0.039509  0.039509      2.000000
 -0.039509 -0.019755  0.039509      2.000000
  0.039509 -0.039509  0.019755      2.000000
  0.039509 -0.019755  0.039509      2.000000
  0.019755 -0.039509  0.039509      2.000000
  0.059264  0.039509  0.019755      2.000000
  0.019755  0.059264  0.039509      2.000000
  0.039509  0.019755  0.059264      2.000000
 -0.039509  0.059264  0.019755      2.000000
 -0.059264  0.019755  0.039509      2.000000
 -0.019755  0.039509  0.059264      2.000000
 -0.059264 -0.039509  0.019755      2.000000
 -0.019755 -0.059264  0.039509      2.000000
 -0.039509 -0.019755  0.059264      2.000000
  0.039509 -0.059264  0.019755      2.000000
  0.059264 -0.019755  0.039509      2.000000
  0.019755 -0.039509  0.059264      2.000000
  0.019755 -0.059264 -0.039509      2.000000
  0.039509 -0.019755 -0.059264      2.000000
  0.059264 -0.039509 -0.019755      2.000000
  0.019755  0.039509 -0.059264      2.000000
  0.039509  0.059264 -0.019755      2.000000
  0.059264  0.019755 -0.039509      2.000000
 -0.039509  0.019755 -0.059264      2.000000
 -0.059264  0.039509 -0.019755      2.000000
 -0.019755  0.059264 -0.039509      2.000000
 -0.059264 -0.019755 -0.039509      2.000000
 -0.039509 -0.059264 -0.019755      2.000000
 -0.019755 -0.039509 -0.059264      2.000000
  0.059264  0.059264  0.019755      2.000000
  0.019755  0.059264  0.059264      2.000000
  0.059264  0.019755  0.059264      2.000000
 -0.059264  0.059264  0.019755      2.000000
 -0.059264  0.019755  0.059264      2.000000
 -0.019755  0.059264  0.059264      2.000000
 -0.059264 -0.059264  0.019755      2.000000
 -0.019755 -0.059264  0.059264      2.000000
 -0.059264 -0.019755  0.059264      2.000000
  0.059264 -0.059264  0.019755      2.000000
  0.059264 -0.019755  0.059264      2.000000
  0.019755 -0.059264  0.059264      2.000000
  0.039509  0.039509  0.039509      2.000000
 -0.039509  0.039509  0.039509      2.000000
 -0.039509 -0.039509  0.039509      2.000000
  0.039509 -0.039509  0.039509      2.000000
  0.059264  0.039509  0.039509      2.000000
  0.039509  0.059264  0.039509      2.000000
  0.039509  0.039509  0.059264      2.000000
 -0.039509  0.059264  0.039509      2.000000
 -0.059264  0.039509  0.039509      2.000000
 -0.039509  0.039509  0.059264      2.000000
 -0.059264 -0.039509  0.039509      2.000000
 -0.039509 -0.059264  0.039509      2.000000
 -0.039509 -0.039509  0.059264      2.000000
  0.039509 -0.059264  0.039509      2.000000
  0.059264 -0.039509  0.039509      2.000000
  0.039509 -0.039509  0.059264      2.000000
  0.059264  0.059264  0.039509      2.000000
  0.039509  0.059264  0.059264      2.000000
  0.059264  0.039509  0.059264      2.000000
 -0.059264  0.059264  0.039509      2.000000
 -0.059264  0.039509  0.059264      2.000000
 -0.039509  0.059264  0.059264      2.000000
 -0.059264 -0.059264  0.039509      2.000000
 -0.039509 -0.059264  0.059264      2.000000
 -0.059264 -0.039509  0.059264      2.000000
  0.059264 -0.059264  0.039509      2.000000
  0.059264 -0.039509  0.059264      2.000000
  0.039509 -0.059264  0.059264      2.000000
  0.059264  0.059264  0.059264      2.000000
 -0.059264  0.059264  0.059264      2.000000
 -0.059264 -0.059264  0.059264      2.000000
  0.059264 -0.059264  0.059264      2.000000
 


--------------------------------------------------------------------------------------------------------




 Dimension of arrays:
   k-points           NKPTS =    172   k-points in BZ     NKDIM =    172   number of bands    NBANDS=     74
   number of dos      NEDOS =    301   number of ions     NIONS =     16
   non local maximal  LDIM  =      6   non local SUM 2l+1 LMDIM =     18
   total plane-waves  NPLWV = 125000
   max r-space proj   IRMAX =      1   max aug-charges    IRDMAX=  16231
   dimension x,y,z NGX =    50 NGY =   50 NGZ =   50
   dimension x,y,z NGXF=   100 NGYF=  100 NGZF=  100
   support grid    NGXF=   100 NGYF=  100 NGZF=  100
   ions per type =              12   4
   NGX,Y,Z   is equivalent  to a cutoff of  11.49, 11.49, 11.49 a.u.
   NGXF,Y,Z  is equivalent  to a cutoff of  22.99, 22.99, 22.99 a.u.

 SYSTEM =  unknown system                          
 POSCAR =  Na Pd                                   

 Startparameter for this run:
   NWRITE =      2    write-flag & timer
   PREC   = accura    normal or accurate (medium, high low for compatibility)
   ISTART =      0    job   : 0-new  1-cont  2-samecut
   ICHARG =      2    charge: 1-file 2-atom 10-const
   ISPIN  =      1    spin polarized calculation?
   LNONCOLLINEAR =      F non collinear calculations
   LSORBIT =      F    spin-orbit coupling
   INIWAV =      1    electr: 0-lowe 1-rand  2-diag
   LASPH  =      T    aspherical Exc in radial PAW
 Electronic Relaxation 1
   ENCUT  =  450.0 eV  33.07 Ry    5.75 a.u.  12.51 12.51 12.51*2*pi/ulx,y,z
   ENINI  =  450.0     initial cutoff
   ENAUG  =  416.2 eV  augmentation charge cutoff
   NELM   =    120;   NELMIN=  2; NELMDL= -5     # of ELM steps 
   EDIFF  = 0.1E-04   stopping-criterion for ELM
   LREAL  =      F    real-space projection
   NLSPLINE    = F    spline interpolate recip. space projectors
   LCOMPAT=      F    compatible to vasp.4.4
   GGA_COMPAT  = T    GGA compatible to vasp.4.4-vasp.4.6
   LMAXPAW     = -100 max onsite density
   LMAXMIX     =    4 max onsite mixed and CHGCAR
   VOSKOWN=      0    Vosko Wilk Nusair interpolation
   ROPT   =    0.00000   0.00000
 Ionic relaxation
   EDIFFG = 0.1E-03   stopping-criterion for IOM
   NSW    =      0    number of steps for IOM
   NBLOCK =      1;   KBLOCK =      1    inner block; outer block 
   IBRION =     -1    ionic relax: 0-MD 1-quasi-New 2-CG
   NFREE  =      0    steps in history (QN), initial steepest desc. (CG)
   ISIF   =      2    stress and relaxation
   IWAVPR =     10    prediction:  0-non 1-charg 2-wave 3-comb
   ISYM   =      0    0-nonsym 1-usesym 2-fastsym
   LCORR  =      T    Harris-Foulkes like correction to forces

   POTIM  = 0.5000    time-step for ionic-motion
   TEIN   =    0.0    initial temperature
   TEBEG  =    0.0;   TEEND  =   0.0 temperature during run
   SMASS  =  -3.00    Nose mass-parameter (am)
   estimated Nose-frequenzy (Omega)   =  0.10E-29 period in steps = 0.13E+47 mass=  -0.120E-26a.u.
   SCALEE = 1.0000    scale energy and forces
   NPACO  =    256;   APACO  = 16.0  distance and # of slots for P.C.
   PSTRESS=    0.0 pullay stress

  Mass of Ions in am
   POMASS =  22.99106.42
  Ionic Valenz
   ZVAL   =   7.00 10.00
  Atomic Wigner-Seitz radii
   RWIGS  =  -1.00 -1.00
  virtual crystal weights 
   VCA    =   1.00  1.00
   NELECT =     124.0000    total number of electrons
   NUPDOWN=      -1.0000    fix difference up-down

 DOS related values:
   EMIN   =  10.00;   EMAX   =-10.00  energy-range for DOS
   EFERMI =   0.00
   ISMEAR =     0;   SIGMA  =   0.05  broadening in eV -4-tet -1-fermi 0-gaus

 Electronic relaxation 2 (details)
   IALGO  =     68    algorithm
   LDIAG  =      T    sub-space diagonalisation (order eigenvalues)
   LSUBROT=      F    optimize rotation matrix (better conditioning)
   TURBO    =      0    0=normal 1=particle mesh
   IRESTART =      0    0=no restart 2=restart with 2 vectors
   NREBOOT  =      0    no. of reboots
   NMIN     =      0    reboot dimension
   EREF     =   0.00    reference energy to select bands
   IMIX   =      4    mixing-type and parameters
     AMIX     =   0.40;   BMIX     =  1.00
     AMIX_MAG =   1.60;   BMIX_MAG =  1.00
     AMIN     =   0.10
     WC   =   100.;   INIMIX=   1;  MIXPRE=   1;  MAXMIX= -45

 Intra band minimization:
   WEIMIN = 0.0000     energy-eigenvalue tresh-hold
   EBREAK =  0.34E-07  absolut break condition
   DEPER  =   0.30     relativ break condition  

   TIME   =   0.40     timestep for ELM

  volume/ion in A,a.u.               =      23.64       159.51
  Fermi-wavevector in a.u.,A,eV,Ry     =   1.128883  2.133279 17.338944  1.274376
  Thomas-Fermi vector in A             =   2.265574
 
 Write flags
   LWAVE        =      T    write WAVECAR
   LDOWNSAMPLE  =      F    k-point downsampling of WAVECAR
   LCHARG       =      T    write CHGCAR
   LVTOT        =      F    write LOCPOT, total local potential
   LVHAR        =      T    write LOCPOT, Hartree potential only
   LELF         =      F    write electronic localiz. function (ELF)
   LORBIT       =     11    0 simple, 1 ext, 2 COOP (PROOUT), +10 PAW based schemes


 Dipole corrections
   LMONO  =      F    monopole corrections only (constant potential shift)
   LDIPOL =      F    correct potential (dipole corrections)
   IDIPOL =      0    1-x, 2-y, 3-z, 4-all directions 
   EPSILON=  1.0000000 bulk dielectric constant

 Exchange correlation treatment:
   GGA     =    RP    GGA type
   LEXCH   =     9    internal setting for exchange type
   VOSKOWN=      0    Vosko Wilk Nusair interpolation
   LHFCALC =     F    Hartree Fock is set to
   LHFONE  =     F    Hartree Fock one center treatment
   AEXX    =    0.0000 exact exchange contribution

 Linear response parameters
   LEPSILON=     F    determine dielectric tensor
   LRPA    =     F    only Hartree local field effects (RPA)
   LNABLA  =     F    use nabla operator in PAW spheres
   LVEL    =     F    velocity operator in full k-point grid
   LINTERFAST=   F  fast interpolation
   KINTER  =     0    interpolate to denser k-point grid
   CSHIFT  =0.1000    complex shift for real part using Kramers Kronig
   OMEGAMAX=  -1.0    maximum frequency
   DEG_THRESHOLD= 0.2000000E-02 threshold for treating states as degnerate
   RTIME   =   -0.100 relaxation time in fs
  (WPLASMAI=    0.000 imaginary part of plasma frequency in eV, 0.658/RTIME)
   DFIELD  = 0.0000000 0.0000000 0.0000000 field for delta impulse in time
 
 Orbital magnetization related:
   ORBITALMAG=     F  switch on orbital magnetization
   LCHIMAG   =     F  perturbation theory with respect to B field
   DQ        =  0.001000  dq finite difference perturbation B field
   LLRAUG    =     F  two centre corrections for induced B field



--------------------------------------------------------------------------------------------------------


 Static calculation
 charge density and potential will be updated during run
 non-spin polarized calculation
 RMM-DIIS sequential band-by-band and
  variant of blocked Davidson during initial phase
 perform sub-space diagonalisation
    before iterative eigenvector-optimisation
 modified Broyden-mixing scheme, WC =      100.0
 initial mixing is a Kerker type mixing with AMIX =  0.4000 and BMIX =      1.0000
 Hartree-type preconditioning will be used
 using additional bands           12
 reciprocal scheme for non local part
 use partial core corrections
 calculate Harris-corrections to forces 
   (improved forces if not selfconsistent)
 use gradient corrections 
 use of overlap-Matrix (Vanderbilt PP)
 Gauss-broadening in eV      SIGMA  =   0.05


--------------------------------------------------------------------------------------------------------


  energy-cutoff  :      450.00
  volume of cell :      378.18
      direct lattice vectors                 reciprocal lattice vectors
     7.231580000  0.000000000  0.000000000     0.138282367 -0.000000000  0.000000000
     0.000000000  7.231580000  0.000000000     0.000000000  0.138282367  0.000000000
     0.000000000  0.000000000  7.231580000    -0.000000000 -0.000000000  0.138282367

  length of vectors
     7.231580000  7.231580000  7.231580000     0.138282367  0.138282367  0.138282367


 
 k-points in units of 2pi/SCALE and weight: KPOINTS created by Atomic Simulation Env
   0.00000000  0.00000000  0.00000000       0.003
   0.01975462 -0.00000000  0.00000000       0.006
   0.00000000  0.01975462  0.00000000       0.006
  -0.00000000 -0.00000000  0.01975462       0.006
   0.03950925 -0.00000000  0.00000000       0.006
   0.00000000  0.03950925  0.00000000       0.006
  -0.00000000 -0.00000000  0.03950925       0.006
   0.05926387 -0.00000000  0.00000000       0.006
   0.00000000  0.05926387  0.00000000       0.006
  -0.00000000 -0.00000000  0.05926387       0.006
   0.01975462  0.01975462  0.00000000       0.006
  -0.00000000  0.01975462  0.01975462       0.006
   0.01975462 -0.00000000  0.01975462       0.006
  -0.01975462  0.01975462  0.00000000       0.006
  -0.01975462  0.00000000  0.01975462       0.006
  -0.00000000 -0.01975462  0.01975462       0.006
   0.03950925  0.01975462  0.00000000       0.006
  -0.00000000  0.03950925  0.01975462       0.006
   0.01975462 -0.00000000  0.03950925       0.006
  -0.01975462  0.03950925  0.00000000       0.006
  -0.03950925  0.00000000  0.01975462       0.006
  -0.00000000  0.01975462  0.03950925       0.006
  -0.00000000 -0.03950925  0.01975462       0.006
  -0.01975462  0.00000000  0.03950925       0.006
   0.03950925 -0.00000000  0.01975462       0.006
  -0.00000000 -0.01975462  0.03950925       0.006
   0.03950925 -0.01975462  0.00000000       0.006
   0.01975462  0.03950925  0.00000000       0.006
   0.05926387  0.01975462  0.00000000       0.006
  -0.00000000  0.05926387  0.01975462       0.006
   0.01975462 -0.00000000  0.05926387       0.006
  -0.01975462  0.05926387  0.00000000       0.006
  -0.05926387  0.00000000  0.01975462       0.006
  -0.00000000  0.01975462  0.05926387       0.006
  -0.00000000 -0.05926387  0.01975462       0.006
  -0.01975462  0.00000000  0.05926387       0.006
   0.05926387 -0.00000000  0.01975462       0.006
  -0.00000000 -0.01975462  0.05926387       0.006
   0.05926387 -0.01975462  0.00000000       0.006
   0.01975462  0.05926387  0.00000000       0.006
   0.03950925  0.03950925  0.00000000       0.006
  -0.00000000  0.03950925  0.03950925       0.006
   0.03950925 -0.00000000  0.03950925       0.006
  -0.03950925  0.03950925  0.00000000       0.006
  -0.03950925  0.00000000  0.03950925       0.006
  -0.00000000 -0.03950925  0.03950925       0.006
   0.05926387  0.03950925  0.00000000       0.006
  -0.00000000  0.05926387  0.03950925       0.006
   0.03950925 -0.00000000  0.05926387       0.006
  -0.03950925  0.05926387  0.00000000       0.006
  -0.05926387  0.00000000  0.03950925       0.006
  -0.00000000  0.03950925  0.05926387       0.006
  -0.00000000 -0.05926387  0.03950925       0.006
  -0.03950925  0.00000000  0.05926387       0.006
   0.05926387 -0.00000000  0.03950925       0.006
  -0.00000000 -0.03950925  0.05926387       0.006
   0.05926387 -0.03950925  0.00000000       0.006
   0.03950925  0.05926387  0.00000000       0.006
   0.05926387  0.05926387  0.00000000       0.006
  -0.00000000  0.05926387  0.05926387       0.006
   0.05926387 -0.00000000  0.05926387       0.006
  -0.05926387  0.05926387  0.00000000       0.006
  -0.05926387  0.00000000  0.05926387       0.006
  -0.00000000 -0.05926387  0.05926387       0.006
   0.01975462  0.01975462  0.01975462       0.006
  -0.01975462  0.01975462  0.01975462       0.006
  -0.01975462 -0.01975462  0.01975462       0.006
   0.01975462 -0.01975462  0.01975462       0.006
   0.03950925  0.01975462  0.01975462       0.006
   0.01975462  0.03950925  0.01975462       0.006
   0.01975462  0.01975462  0.03950925       0.006
  -0.01975462  0.03950925  0.01975462       0.006
  -0.03950925  0.01975462  0.01975462       0.006
  -0.01975462  0.01975462  0.03950925       0.006
  -0.03950925 -0.01975462  0.01975462       0.006
  -0.01975462 -0.03950925  0.01975462       0.006
  -0.01975462 -0.01975462  0.03950925       0.006
   0.01975462 -0.03950925  0.01975462       0.006
   0.03950925 -0.01975462  0.01975462       0.006
   0.01975462 -0.01975462  0.03950925       0.006
   0.05926387  0.01975462  0.01975462       0.006
   0.01975462  0.05926387  0.01975462       0.006
   0.01975462  0.01975462  0.05926387       0.006
  -0.01975462  0.05926387  0.01975462       0.006
  -0.05926387  0.01975462  0.01975462       0.006
  -0.01975462  0.01975462  0.05926387       0.006
  -0.05926387 -0.01975462  0.01975462       0.006
  -0.01975462 -0.05926387  0.01975462       0.006
  -0.01975462 -0.01975462  0.05926387       0.006
   0.01975462 -0.05926387  0.01975462       0.006
   0.05926387 -0.01975462  0.01975462       0.006
   0.01975462 -0.01975462  0.05926387       0.006
   0.03950925  0.03950925  0.01975462       0.006
   0.01975462  0.03950925  0.03950925       0.006
   0.03950925  0.01975462  0.03950925       0.006
  -0.03950925  0.03950925  0.01975462       0.006
  -0.03950925  0.01975462  0.03950925       0.006
  -0.01975462  0.03950925  0.03950925       0.006
  -0.03950925 -0.03950925  0.01975462       0.006
  -0.01975462 -0.03950925  0.03950925       0.006
  -0.03950925 -0.01975462  0.03950925       0.006
   0.03950925 -0.03950925  0.01975462       0.006
   0.03950925 -0.01975462  0.03950925       0.006
   0.01975462 -0.03950925  0.03950925       0.006
   0.05926387  0.03950925  0.01975462       0.006
   0.01975462  0.05926387  0.03950925       0.006
   0.03950925  0.01975462  0.05926387       0.006
  -0.03950925  0.05926387  0.01975462       0.006
  -0.05926387  0.01975462  0.03950925       0.006
  -0.01975462  0.03950925  0.05926387       0.006
  -0.05926387 -0.03950925  0.01975462       0.006
  -0.01975462 -0.05926387  0.03950925       0.006
  -0.03950925 -0.01975462  0.05926387       0.006
   0.03950925 -0.05926387  0.01975462       0.006
   0.05926387 -0.01975462  0.03950925       0.006
   0.01975462 -0.03950925  0.05926387       0.006
   0.01975462 -0.05926387 -0.03950925       0.006
   0.03950925 -0.01975462 -0.05926387       0.006
   0.05926387 -0.03950925 -0.01975462       0.006
   0.01975462  0.03950925 -0.05926387       0.006
   0.03950925  0.05926387 -0.01975462       0.006
   0.05926387  0.01975462 -0.03950925       0.006
  -0.03950925  0.01975462 -0.05926387       0.006
  -0.05926387  0.03950925 -0.01975462       0.006
  -0.01975462  0.05926387 -0.03950925       0.006
  -0.05926387 -0.01975462 -0.03950925       0.006
  -0.03950925 -0.05926387 -0.01975462       0.006
  -0.01975462 -0.03950925 -0.05926387       0.006
   0.05926387  0.05926387  0.01975462       0.006
   0.01975462  0.05926387  0.05926387       0.006
   0.05926387  0.01975462  0.05926387       0.006
  -0.05926387  0.05926387  0.01975462       0.006
  -0.05926387  0.01975462  0.05926387       0.006
  -0.01975462  0.05926387  0.05926387       0.006
  -0.05926387 -0.05926387  0.01975462       0.006
  -0.01975462 -0.05926387  0.05926387       0.006
  -0.05926387 -0.01975462  0.05926387       0.006
   0.05926387 -0.05926387  0.01975462       0.006
   0.05926387 -0.01975462  0.05926387       0.006
   0.01975462 -0.05926387  0.05926387       0.006
   0.03950925  0.03950925  0.03950925       0.006
  -0.03950925  0.03950925  0.03950925       0.006
  -0.03950925 -0.03950925  0.03950925       0.006
   0.03950925 -0.03950925  0.03950925       0.006
   0.05926387  0.03950925  0.03950925       0.006
   0.03950925  0.05926387  0.03950925       0.006
   0.03950925  0.03950925  0.05926387       0.006
  -0.03950925  0.05926387  0.03950925       0.006
  -0.05926387  0.03950925  0.03950925       0.006
  -0.03950925  0.03950925  0.05926387       0.006
  -0.05926387 -0.03950925  0.03950925       0.006
  -0.03950925 -0.05926387  0.03950925       0.006
  -0.03950925 -0.03950925  0.05926387       0.006
   0.03950925 -0.05926387  0.03950925       0.006
   0.05926387 -0.03950925  0.03950925       0.006
   0.03950925 -0.03950925  0.05926387       0.006
   0.05926387  0.05926387  0.03950925       0.006
   0.03950925  0.05926387  0.05926387       0.006
   0.05926387  0.03950925  0.05926387       0.006
  -0.05926387  0.05926387  0.03950925       0.006
  -0.05926387  0.03950925  0.05926387       0.006
  -0.03950925  0.05926387  0.05926387       0.006
  -0.05926387 -0.05926387  0.03950925       0.006
  -0.03950925 -0.05926387  0.05926387       0.006
  -0.05926387 -0.03950925  0.05926387       0.006
   0.05926387 -0.05926387  0.03950925       0.006
   0.05926387 -0.03950925  0.05926387       0.006
   0.03950925 -0.05926387  0.05926387       0.006
   0.05926387  0.05926387  0.05926387       0.006
  -0.05926387  0.05926387  0.05926387       0.006
  -0.05926387 -0.05926387  0.05926387       0.006
   0.05926387 -0.05926387  0.05926387       0.006
 
 k-points in reciprocal lattice and weights: KPOINTS created by Atomic Simulation Env
   0.00000000  0.00000000  0.00000000       0.003
   0.14285714 -0.00000000  0.00000000       0.006
   0.00000000  0.14285714  0.00000000       0.006
  -0.00000000 -0.00000000  0.14285714       0.006
   0.28571429 -0.00000000  0.00000000       0.006
   0.00000000  0.28571429  0.00000000       0.006
  -0.00000000 -0.00000000  0.28571429       0.006
   0.42857143 -0.00000000  0.00000000       0.006
   0.00000000  0.42857143  0.00000000       0.006
  -0.00000000 -0.00000000  0.42857143       0.006
   0.14285714  0.14285714  0.00000000       0.006
  -0.00000000  0.14285714  0.14285714       0.006
   0.14285714  0.00000000  0.14285714       0.006
  -0.14285714  0.14285714  0.00000000       0.006
  -0.14285714  0.00000000  0.14285714       0.006
  -0.00000000 -0.14285714  0.14285714       0.006
   0.28571429  0.14285714  0.00000000       0.006
  -0.00000000  0.28571429  0.14285714       0.006
   0.14285714 -0.00000000  0.28571429       0.006
  -0.14285714  0.28571429  0.00000000       0.006
  -0.28571429  0.00000000  0.14285714       0.006
  -0.00000000  0.14285714  0.28571429       0.006
  -0.00000000 -0.28571429  0.14285714       0.006
  -0.14285714 -0.00000000  0.28571429       0.006
   0.28571429 -0.00000000  0.14285714       0.006
  -0.00000000 -0.14285714  0.28571429       0.006
   0.28571429 -0.14285714  0.00000000       0.006
   0.14285714  0.28571429  0.00000000       0.006
   0.42857143  0.14285714  0.00000000       0.006
  -0.00000000  0.42857143  0.14285714       0.006
   0.14285714 -0.00000000  0.42857143       0.006
  -0.14285714  0.42857143  0.00000000       0.006
  -0.42857143 -0.00000000  0.14285714       0.006
  -0.00000000  0.14285714  0.42857143       0.006
  -0.00000000 -0.42857143  0.14285714       0.006
  -0.14285714 -0.00000000  0.42857143       0.006
   0.42857143 -0.00000000  0.14285714       0.006
  -0.00000000 -0.14285714  0.42857143       0.006
   0.42857143 -0.14285714  0.00000000       0.006
   0.14285714  0.42857143  0.00000000       0.006
   0.28571429  0.28571429  0.00000000       0.006
  -0.00000000  0.28571429  0.28571429       0.006
   0.28571429 -0.00000000  0.28571429       0.006
  -0.28571429  0.28571429  0.00000000       0.006
  -0.28571429  0.00000000  0.28571429       0.006
  -0.00000000 -0.28571429  0.28571429       0.006
   0.42857143  0.28571429  0.00000000       0.006
  -0.00000000  0.42857143  0.28571429       0.006
   0.28571429 -0.00000000  0.42857143       0.006
  -0.28571429  0.42857143  0.00000000       0.006
  -0.42857143  0.00000000  0.28571429       0.006
  -0.00000000  0.28571429  0.42857143       0.006
  -0.00000000 -0.42857143  0.28571429       0.006
  -0.28571429  0.00000000  0.42857143       0.006
   0.42857143 -0.00000000  0.28571429       0.006
  -0.00000000 -0.28571429  0.42857143       0.006
   0.42857143 -0.28571429  0.00000000       0.006
   0.28571429  0.42857143  0.00000000       0.006
   0.42857143  0.42857143  0.00000000       0.006
  -0.00000000  0.42857143  0.42857143       0.006
   0.42857143 -0.00000000  0.42857143       0.006
  -0.42857143  0.42857143  0.00000000       0.006
  -0.42857143  0.00000000  0.42857143       0.006
  -0.00000000 -0.42857143  0.42857143       0.006
   0.14285714  0.14285714  0.14285714       0.006
  -0.14285714  0.14285714  0.14285714       0.006
  -0.14285714 -0.14285714  0.14285714       0.006
   0.14285714 -0.14285714  0.14285714       0.006
   0.28571429  0.14285714  0.14285714       0.006
   0.14285714  0.28571429  0.14285714       0.006
   0.14285714  0.14285714  0.28571429       0.006
  -0.14285714  0.28571429  0.14285714       0.006
  -0.28571429  0.14285714  0.14285714       0.006
  -0.14285714  0.14285714  0.28571429       0.006
  -0.28571429 -0.14285714  0.14285714       0.006
  -0.14285714 -0.28571429  0.14285714       0.006
  -0.14285714 -0.14285714  0.28571429       0.006
   0.14285714 -0.28571429  0.14285714       0.006
   0.28571429 -0.14285714  0.14285714       0.006
   0.14285714 -0.14285714  0.28571429       0.006
   0.42857143  0.14285714  0.14285714       0.006
   0.14285714  0.42857143  0.14285714       0.006
   0.14285714  0.14285714  0.42857143       0.006
  -0.14285714  0.42857143  0.14285714       0.006
  -0.42857143  0.14285714  0.14285714       0.006
  -0.14285714  0.14285714  0.42857143       0.006
  -0.42857143 -0.14285714  0.14285714       0.006
  -0.14285714 -0.42857143  0.14285714       0.006
  -0.14285714 -0.14285714  0.42857143       0.006
   0.14285714 -0.42857143  0.14285714       0.006
   0.42857143 -0.14285714  0.14285714       0.006
   0.14285714 -0.14285714  0.42857143       0.006
   0.28571429  0.28571429  0.14285714       0.006
   0.14285714  0.28571429  0.28571429       0.006
   0.28571429  0.14285714  0.28571429       0.006
  -0.28571429  0.28571429  0.14285714       0.006
  -0.28571429  0.14285714  0.28571429       0.006
  -0.14285714  0.28571429  0.28571429       0.006
  -0.28571429 -0.28571429  0.14285714       0.006
  -0.14285714 -0.28571429  0.28571429       0.006
  -0.28571429 -0.14285714  0.28571429       0.006
   0.28571429 -0.28571429  0.14285714       0.006
   0.28571429 -0.14285714  0.28571429       0.006
   0.14285714 -0.28571429  0.28571429       0.006
   0.42857143  0.28571429  0.14285714       0.006
   0.14285714  0.42857143  0.28571429       0.006
   0.28571429  0.14285714  0.42857143       0.006
  -0.28571429  0.42857143  0.14285714       0.006
  -0.42857143  0.14285714  0.28571429       0.006
  -0.14285714  0.28571429  0.42857143       0.006
  -0.42857143 -0.28571429  0.14285714       0.006
  -0.14285714 -0.42857143  0.28571429       0.006
  -0.28571429 -0.14285714  0.42857143       0.006
   0.28571429 -0.42857143  0.14285714       0.006
   0.42857143 -0.14285714  0.28571429       0.006
   0.14285714 -0.28571429  0.42857143       0.006
   0.14285714 -0.42857143 -0.28571429       0.006
   0.28571429 -0.14285714 -0.42857143       0.006
   0.42857143 -0.28571429 -0.14285714       0.006
   0.14285714  0.28571429 -0.42857143       0.006
   0.28571429  0.42857143 -0.14285714       0.006
   0.42857143  0.14285714 -0.28571429       0.006
  -0.28571429  0.14285714 -0.42857143       0.006
  -0.42857143  0.28571429 -0.14285714       0.006
  -0.14285714  0.42857143 -0.28571429       0.006
  -0.42857143 -0.14285714 -0.28571429       0.006
  -0.28571429 -0.42857143 -0.14285714       0.006
  -0.14285714 -0.28571429 -0.42857143       0.006
   0.42857143  0.42857143  0.14285714       0.006
   0.14285714  0.42857143  0.42857143       0.006
   0.42857143  0.14285714  0.42857143       0.006
  -0.42857143  0.42857143  0.14285714       0.006
  -0.42857143  0.14285714  0.42857143       0.006
  -0.14285714  0.42857143  0.42857143       0.006
  -0.42857143 -0.42857143  0.14285714       0.006
  -0.14285714 -0.42857143  0.42857143       0.006
  -0.42857143 -0.14285714  0.42857143       0.006
   0.42857143 -0.42857143  0.14285714       0.006
   0.42857143 -0.14285714  0.42857143       0.006
   0.14285714 -0.42857143  0.42857143       0.006
   0.28571429  0.28571429  0.28571429       0.006
  -0.28571429  0.28571429  0.28571429       0.006
  -0.28571429 -0.28571429  0.28571429       0.006
   0.28571429 -0.28571429  0.28571429       0.006
   0.42857143  0.28571429  0.28571429       0.006
   0.28571429  0.42857143  0.28571429       0.006
   0.28571429  0.28571429  0.42857143       0.006
  -0.28571429  0.42857143  0.28571429       0.006
  -0.42857143  0.28571429  0.28571429       0.006
  -0.28571429  0.28571429  0.42857143       0.006
  -0.42857143 -0.28571429  0.28571429       0.006
  -0.28571429 -0.42857143  0.28571429       0.006
  -0.28571429 -0.28571429  0.42857143       0.006
   0.28571429 -0.42857143  0.28571429       0.006
   0.42857143 -0.28571429  0.28571429       0.006
   0.28571429 -0.28571429  0.42857143       0.006
   0.42857143  0.42857143  0.28571429       0.006
   0.28571429  0.42857143  0.42857143       0.006
   0.42857143  0.28571429  0.42857143       0.006
  -0.42857143  0.42857143  0.28571429       0.006
  -0.42857143  0.28571429  0.42857143       0.006
  -0.28571429  0.42857143  0.42857143       0.006
  -0.42857143 -0.42857143  0.28571429       0.006
  -0.28571429 -0.42857143  0.42857143       0.006
  -0.42857143 -0.28571429  0.42857143       0.006
   0.42857143 -0.42857143  0.28571429       0.006
   0.42857143 -0.28571429  0.42857143       0.006
   0.28571429 -0.42857143  0.42857143       0.006
   0.42857143  0.42857143  0.42857143       0.006
  -0.42857143  0.42857143  0.42857143       0.006
  -0.42857143 -0.42857143  0.42857143       0.006
   0.42857143 -0.42857143  0.42857143       0.006
 
 position of ions in fractional coordinates (direct lattice) 
   0.25000000  0.75000000  0.75000000
   0.25000000  0.25000000  0.75000000
   0.50000000  0.00000000  0.00000000
   0.25000000  0.25000000  0.25000000
   0.25000000  0.75000000  0.25000000
   0.50000000  0.50000000  0.50000000
   0.75000000  0.75000000  0.25000000
   0.75000000  0.25000000  0.25000000
   0.00000000  0.00000000  0.50000000
   0.75000000  0.25000000  0.75000000
   0.75000000  0.75000000  0.75000000
   0.00000000  0.50000000  0.00000000
   0.00000000  0.00000000  0.00000000
   0.00000000  0.50000000  0.50000000
   0.50000000  0.00000000  0.50000000
   0.50000000  0.50000000  0.00000000
 
 position of ions in cartesian coordinates  (Angst):
   1.80789500  5.42368500  5.42368500
   1.80789500  1.80789500  5.42368500
   3.61579000  0.00000000  0.00000000
   1.80789500  1.80789500  1.80789500
   1.80789500  5.42368500  1.80789500
   3.61579000  3.61579000  3.61579000
   5.42368500  5.42368500  1.80789500
   5.42368500  1.80789500  1.80789500
   0.00000000  0.00000000  3.61579000
   5.42368500  1.80789500  5.42368500
   5.42368500  5.42368500  5.42368500
   0.00000000  3.61579000  0.00000000
   0.00000000  0.00000000  0.00000000
   0.00000000  3.61579000  3.61579000
   3.61579000  0.00000000  3.61579000
   3.61579000  3.61579000  0.00000000
 


--------------------------------------------------------------------------------------------------------


 k-point   1 :   0.0000 0.0000 0.0000  plane waves:    8217
 k-point   2 :   0.1429-0.0000 0.0000  plane waves:    8241
 k-point   3 :   0.0000 0.1429 0.0000  plane waves:    8241
 k-point   4 :  -0.0000-0.0000 0.1429  plane waves:    8241
 k-point   5 :   0.2857-0.0000 0.0000  plane waves:    8209
 k-point   6 :   0.0000 0.2857 0.0000  plane waves:    8209
 k-point   7 :  -0.0000-0.0000 0.2857  plane waves:    8209
 k-point   8 :   0.4286-0.0000 0.0000  plane waves:    8177
 k-point   9 :   0.0000 0.4286 0.0000  plane waves:    8177
 k-point  10 :  -0.0000-0.0000 0.4286  plane waves:    8177
 k-point  11 :   0.1429 0.1429 0.0000  plane waves:    8197
 k-point  12 :  -0.0000 0.1429 0.1429  plane waves:    8197
 k-point  13 :   0.1429 0.0000 0.1429  plane waves:    8197
 k-point  14 :  -0.1429 0.1429 0.0000  plane waves:    8197
 k-point  15 :  -0.1429 0.0000 0.1429  plane waves:    8197
 k-point  16 :  -0.0000-0.1429 0.1429  plane waves:    8197
 k-point  17 :   0.2857 0.1429 0.0000  plane waves:    8203
 k-point  18 :  -0.0000 0.2857 0.1429  plane waves:    8203
 k-point  19 :   0.1429-0.0000 0.2857  plane waves:    8203
 k-point  20 :  -0.1429 0.2857 0.0000  plane waves:    8203
 k-point  21 :  -0.2857 0.0000 0.1429  plane waves:    8203
 k-point  22 :  -0.0000 0.1429 0.2857  plane waves:    8203
 k-point  23 :  -0.0000-0.2857 0.1429  plane waves:    8203
 k-point  24 :  -0.1429-0.0000 0.2857  plane waves:    8203
 k-point  25 :   0.2857-0.0000 0.1429  plane waves:    8203
 k-point  26 :  -0.0000-0.1429 0.2857  plane waves:    8203
 k-point  27 :   0.2857-0.1429 0.0000  plane waves:    8203
 k-point  28 :   0.1429 0.2857 0.0000  plane waves:    8203
 k-point  29 :   0.4286 0.1429 0.0000  plane waves:    8197
 k-point  30 :  -0.0000 0.4286 0.1429  plane waves:    8197
 k-point  31 :   0.1429-0.0000 0.4286  plane waves:    8197
 k-point  32 :  -0.1429 0.4286 0.0000  plane waves:    8197
 k-point  33 :  -0.4286-0.0000 0.1429  plane waves:    8197
 k-point  34 :  -0.0000 0.1429 0.4286  plane waves:    8197
 k-point  35 :  -0.0000-0.4286 0.1429  plane waves:    8197
 k-point  36 :  -0.1429-0.0000 0.4286  plane waves:    8197
 k-point  37 :   0.4286-0.0000 0.1429  plane waves:    8197
 k-point  38 :  -0.0000-0.1429 0.4286  plane waves:    8197
 k-point  39 :   0.4286-0.1429 0.0000  plane waves:    8197
 k-point  40 :   0.1429 0.4286 0.0000  plane waves:    8197
 k-point  41 :   0.2857 0.2857 0.0000  plane waves:    8224
 k-point  42 :  -0.0000 0.2857 0.2857  plane waves:    8224
 k-point  43 :   0.2857-0.0000 0.2857  plane waves:    8224
 k-point  44 :  -0.2857 0.2857 0.0000  plane waves:    8224
 k-point  45 :  -0.2857 0.0000 0.2857  plane waves:    8224
 k-point  46 :  -0.0000-0.2857 0.2857  plane waves:    8224
 k-point  47 :   0.4286 0.2857 0.0000  plane waves:    8199
 k-point  48 :  -0.0000 0.4286 0.2857  plane waves:    8199
 k-point  49 :   0.2857-0.0000 0.4286  plane waves:    8199
 k-point  50 :  -0.2857 0.4286 0.0000  plane waves:    8199
 k-point  51 :  -0.4286 0.0000 0.2857  plane waves:    8199
 k-point  52 :  -0.0000 0.2857 0.4286  plane waves:    8199
 k-point  53 :  -0.0000-0.4286 0.2857  plane waves:    8199
 k-point  54 :  -0.2857 0.0000 0.4286  plane waves:    8199
 k-point  55 :   0.4286-0.0000 0.2857  plane waves:    8199
 k-point  56 :  -0.0000-0.2857 0.4286  plane waves:    8199
 k-point  57 :   0.4286-0.2857 0.0000  plane waves:    8199
 k-point  58 :   0.2857 0.4286 0.0000  plane waves:    8199
 k-point  59 :   0.4286 0.4286 0.0000  plane waves:    8194
 k-point  60 :  -0.0000 0.4286 0.4286  plane waves:    8194
 k-point  61 :   0.4286-0.0000 0.4286  plane waves:    8194
 k-point  62 :  -0.4286 0.4286 0.0000  plane waves:    8194
 k-point  63 :  -0.4286 0.0000 0.4286  plane waves:    8194
 k-point  64 :  -0.0000-0.4286 0.4286  plane waves:    8194
 k-point  65 :   0.1429 0.1429 0.1429  plane waves:    8226
 k-point  66 :  -0.1429 0.1429 0.1429  plane waves:    8226
 k-point  67 :  -0.1429-0.1429 0.1429  plane waves:    8226
 k-point  68 :   0.1429-0.1429 0.1429  plane waves:    8226
 k-point  69 :   0.2857 0.1429 0.1429  plane waves:    8211
 k-point  70 :   0.1429 0.2857 0.1429  plane waves:    8211
 k-point  71 :   0.1429 0.1429 0.2857  plane waves:    8211
 k-point  72 :  -0.1429 0.2857 0.1429  plane waves:    8211
 k-point  73 :  -0.2857 0.1429 0.1429  plane waves:    8211
 k-point  74 :  -0.1429 0.1429 0.2857  plane waves:    8211
 k-point  75 :  -0.2857-0.1429 0.1429  plane waves:    8211
 k-point  76 :  -0.1429-0.2857 0.1429  plane waves:    8211
 k-point  77 :  -0.1429-0.1429 0.2857  plane waves:    8211
 k-point  78 :   0.1429-0.2857 0.1429  plane waves:    8211
 k-point  79 :   0.2857-0.1429 0.1429  plane waves:    8211
 k-point  80 :   0.1429-0.1429 0.2857  plane waves:    8211
 k-point  81 :   0.4286 0.1429 0.1429  plane waves:    8195
 k-point  82 :   0.1429 0.4286 0.1429  plane waves:    8195
 k-point  83 :   0.1429 0.1429 0.4286  plane waves:    8195
 k-point  84 :  -0.1429 0.4286 0.1429  plane waves:    8195
 k-point  85 :  -0.4286 0.1429 0.1429  plane waves:    8195
 k-point  86 :  -0.1429 0.1429 0.4286  plane waves:    8195
 k-point  87 :  -0.4286-0.1429 0.1429  plane waves:    8195
 k-point  88 :  -0.1429-0.4286 0.1429  plane waves:    8195
 k-point  89 :  -0.1429-0.1429 0.4286  plane waves:    8195
 k-point  90 :   0.1429-0.4286 0.1429  plane waves:    8195
 k-point  91 :   0.4286-0.1429 0.1429  plane waves:    8195
 k-point  92 :   0.1429-0.1429 0.4286  plane waves:    8195
 k-point  93 :   0.2857 0.2857 0.1429  plane waves:    8212
 k-point  94 :   0.1429 0.2857 0.2857  plane waves:    8212
 k-point  95 :   0.2857 0.1429 0.2857  plane waves:    8212
 k-point  96 :  -0.2857 0.2857 0.1429  plane waves:    8212
 k-point  97 :  -0.2857 0.1429 0.2857  plane waves:    8212
 k-point  98 :  -0.1429 0.2857 0.2857  plane waves:    8212
 k-point  99 :  -0.2857-0.2857 0.1429  plane waves:    8212
 k-point 100 :  -0.1429-0.2857 0.2857  plane waves:    8212
 k-point 101 :  -0.2857-0.1429 0.2857  plane waves:    8212
 k-point 102 :   0.2857-0.2857 0.1429  plane waves:    8212
 k-point 103 :   0.2857-0.1429 0.2857  plane waves:    8212
 k-point 104 :   0.1429-0.2857 0.2857  plane waves:    8212
 k-point 105 :   0.4286 0.2857 0.1429  plane waves:    8191
 k-point 106 :   0.1429 0.4286 0.2857  plane waves:    8191
 k-point 107 :   0.2857 0.1429 0.4286  plane waves:    8191
 k-point 108 :  -0.2857 0.4286 0.1429  plane waves:    8191
 k-point 109 :  -0.4286 0.1429 0.2857  plane waves:    8191
 k-point 110 :  -0.1429 0.2857 0.4286  plane waves:    8191
 k-point 111 :  -0.4286-0.2857 0.1429  plane waves:    8191
 k-point 112 :  -0.1429-0.4286 0.2857  plane waves:    8191
 k-point 113 :  -0.2857-0.1429 0.4286  plane waves:    8191
 k-point 114 :   0.2857-0.4286 0.1429  plane waves:    8191
 k-point 115 :   0.4286-0.1429 0.2857  plane waves:    8191
 k-point 116 :   0.1429-0.2857 0.4286  plane waves:    8191
 k-point 117 :   0.1429-0.4286-0.2857  plane waves:    8191
 k-point 118 :   0.2857-0.1429-0.4286  plane waves:    8191
 k-point 119 :   0.4286-0.2857-0.1429  plane waves:    8191
 k-point 120 :   0.1429 0.2857-0.4286  plane waves:    8191
 k-point 121 :   0.2857 0.4286-0.1429  plane waves:    8191
 k-point 122 :   0.4286 0.1429-0.2857  plane waves:    8191
 k-point 123 :  -0.2857 0.1429-0.4286  plane waves:    8191
 k-point 124 :  -0.4286 0.2857-0.1429  plane waves:    8191
 k-point 125 :  -0.1429 0.4286-0.2857  plane waves:    8191
 k-point 126 :  -0.4286-0.1429-0.2857  plane waves:    8191
 k-point 127 :  -0.2857-0.4286-0.1429  plane waves:    8191
 k-point 128 :  -0.1429-0.2857-0.4286  plane waves:    8191
 k-point 129 :   0.4286 0.4286 0.1429  plane waves:    8190
 k-point 130 :   0.1429 0.4286 0.4286  plane waves:    8190
 k-point 131 :   0.4286 0.1429 0.4286  plane waves:    8190
 k-point 132 :  -0.4286 0.4286 0.1429  plane waves:    8190
 k-point 133 :  -0.4286 0.1429 0.4286  plane waves:    8190
 k-point 134 :  -0.1429 0.4286 0.4286  plane waves:    8190
 k-point 135 :  -0.4286-0.4286 0.1429  plane waves:    8190
 k-point 136 :  -0.1429-0.4286 0.4286  plane waves:    8190
 k-point 137 :  -0.4286-0.1429 0.4286  plane waves:    8190
 k-point 138 :   0.4286-0.4286 0.1429  plane waves:    8190
 k-point 139 :   0.4286-0.1429 0.4286  plane waves:    8190
 k-point 140 :   0.1429-0.4286 0.4286  plane waves:    8190
 k-point 141 :   0.2857 0.2857 0.2857  plane waves:    8198
 k-point 142 :  -0.2857 0.2857 0.2857  plane waves:    8198
 k-point 143 :  -0.2857-0.2857 0.2857  plane waves:    8198
 k-point 144 :   0.2857-0.2857 0.2857  plane waves:    8198
 k-point 145 :   0.4286 0.2857 0.2857  plane waves:    8179
 k-point 146 :   0.2857 0.4286 0.2857  plane waves:    8179
 k-point 147 :   0.2857 0.2857 0.4286  plane waves:    8179
 k-point 148 :  -0.2857 0.4286 0.2857  plane waves:    8179
 k-point 149 :  -0.4286 0.2857 0.2857  plane waves:    8179
 k-point 150 :  -0.2857 0.2857 0.4286  plane waves:    8179
 k-point 151 :  -0.4286-0.2857 0.2857  plane waves:    8179
 k-point 152 :  -0.2857-0.4286 0.2857  plane waves:    8179
 k-point 153 :  -0.2857-0.2857 0.4286  plane waves:    8179
 k-point 154 :   0.2857-0.4286 0.2857  plane waves:    8179
 k-point 155 :   0.4286-0.2857 0.2857  plane waves:    8179
 k-point 156 :   0.2857-0.2857 0.4286  plane waves:    8179
 k-point 157 :   0.4286 0.4286 0.2857  plane waves:    8190
 k-point 158 :   0.2857 0.4286 0.4286  plane waves:    8190
 k-point 159 :   0.4286 0.2857 0.4286  plane waves:    8190
 k-point 160 :  -0.4286 0.4286 0.2857  plane waves:    8190
 k-point 161 :  -0.4286 0.2857 0.4286  plane waves:    8190
 k-point 162 :  -0.2857 0.4286 0.4286  plane waves:    8190
 k-point 163 :  -0.4286-0.4286 0.2857  plane waves:    8190
 k-point 164 :  -0.2857-0.4286 0.4286  plane waves:    8190
 k-point 165 :  -0.4286-0.2857 0.4286  plane waves:    8190
 k-point 166 :   0.4286-0.4286 0.2857  plane waves:    8190
 k-point 167 :   0.4286-0.2857 0.4286  plane waves:    8190
 k-point 168 :   0.2857-0.4286 0.4286  plane waves:    8190
 k-point 169 :   0.4286 0.4286 0.4286  plane waves:    8189
 k-point 170 :  -0.4286 0.4286 0.4286  plane waves:    8189
 k-point 171 :  -0.4286-0.4286 0.4286  plane waves:    8189
 k-point 172 :   0.4286-0.4286 0.4286  plane waves:    8189

 maximum and minimum number of plane-waves per node :      2075     2008

 maximum number of plane-waves:      8241
 maximum index in each direction: 
   IXMAX=   12   IYMAX=   12   IZMAX=   12
   IXMIN=  -12   IYMIN=  -12   IZMIN=  -12


 parallel 3D FFT for wavefunctions:
    minimum data exchange during FFTs selected (reduces bandwidth)
 parallel 3D FFT for charge:
    minimum data exchange during FFTs selected (reduces bandwidth)


 total amount of memory used by VASP MPI-rank0   362864. kBytes
=======================================================================

   base      :      30000. kBytes
   nonl-proj :     103268. kBytes
   fftplans  :       5381. kBytes
   grid      :       8694. kBytes
   one-center:         62. kBytes
   wavefun   :     215459. kBytes
 
     INWAV:  cpu time    0.0001: real time    0.0001
 Broyden mixing: mesh for mixing (old mesh)
   NGX = 25   NGY = 25   NGZ = 25
  (NGX  =100   NGY  =100   NGZ  =100)
  gives a total of  15625 points

 initial charge density was supplied:
 charge density of overlapping atoms calculated
 number of electron     124.0000000 magnetization 
 keeping initial charge density in first step


--------------------------------------------------------------------------------------------------------


 Maximum index for augmentation-charges         2292 (set IRDMAX)


--------------------------------------------------------------------------------------------------------


 First call to EWALD:  gamma=   0.245
 Maximum number of real-space cells 3x 3x 3
 Maximum number of reciprocal cells 3x 3x 3

    FEWALD:  cpu time    0.0131: real time    0.0131


--------------------------------------- Iteration      1(   1)  ---------------------------------------


    POTLOK:  cpu time    0.1844: real time    0.3131
    SETDIJ:  cpu time    0.5468: real time    0.5471
     EDDAV:  cpu time    7.8309: real time    7.8391
       DOS:  cpu time    0.0136: real time    0.0144
    --------------------------------------------
      LOOP:  cpu time    8.5758: real time    8.7138

 eigenvalue-minimisations  : 25904
 total energy-change (2. order) : 0.1250037E+04  (-0.5801767E+04)
 number of electron     124.0000000 magnetization 
 augmentation part      124.0000000 magnetization 

 Free energy of the ion-electron system (eV)
  ---------------------------------------------------
  alpha Z        PSCENC =       256.86125899
  Ewald energy   TEWEN  =     -7063.07188753
  -Hartree energ DENC   =     -3479.35601172
  -exchange      EXHF   =         0.00000000
  -V(xc)+E(xc)   XCENC  =       166.29664293
  PAW double counting   =      9265.41462517   -10065.47884051
  entropy T*S    EENTRO =        -0.00256293
  eigenvalues    EBANDS =      -252.24509754
  atomic energy  EATOM  =     12421.61867991
  Solvation  Ediel_sol  =         0.00000000
  ---------------------------------------------------
  free energy    TOTEN  =      1250.03680677 eV

  energy without entropy =     1250.03936970  energy(sigma->0) =     1250.03808824


--------------------------------------------------------------------------------------------------------




--------------------------------------- Iteration      1(   2)  ---------------------------------------


     EDDAV:  cpu time    7.6472: real time    7.6657
       DOS:  cpu time    0.0098: real time    0.0098
    --------------------------------------------
      LOOP:  cpu time    7.6570: real time    7.6755

 eigenvalue-minimisations  : 25472
 total energy-change (2. order) :-0.1163978E+04  (-0.1135498E+04)
 number of electron     124.0000000 magnetization 
 augmentation part      124.0000000 magnetization 

 Free energy of the ion-electron system (eV)
  ---------------------------------------------------
  alpha Z        PSCENC =       256.86125899
  Ewald energy   TEWEN  =     -7063.07188753
  -Hartree energ DENC   =     -3479.35601172
  -exchange      EXHF   =         0.00000000
  -V(xc)+E(xc)   XCENC  =       166.29664293
  PAW double counting   =      9265.41462517   -10065.47884051
  entropy T*S    EENTRO =        -0.00587656
  eigenvalues    EBANDS =     -1416.21967777
  atomic energy  EATOM  =     12421.61867991
  Solvation  Ediel_sol  =         0.00000000
  ---------------------------------------------------
  free energy    TOTEN  =        86.05891291 eV

  energy without entropy =       86.06478947  energy(sigma->0) =       86.06185119


--------------------------------------------------------------------------------------------------------




--------------------------------------- Iteration      1(   3)  ---------------------------------------


     EDDAV:  cpu time    8.4121: real time    8.4232
       DOS:  cpu time    0.0117: real time    0.0117
    --------------------------------------------
      LOOP:  cpu time    8.4238: real time    8.4349

 eigenvalue-minimisations  : 28316
 total energy-change (2. order) :-0.1154267E+03  (-0.1080655E+03)
 number of electron     124.0000000 magnetization 
 augmentation part      124.0000000 magnetization 

 Free energy of the ion-electron system (eV)
  ---------------------------------------------------
  alpha Z        PSCENC =       256.86125899
  Ewald energy   TEWEN  =     -7063.07188753
  -Hartree energ DENC   =     -3479.35601172
  -exchange      EXHF   =         0.00000000
  -V(xc)+E(xc)   XCENC  =       166.29664293
  PAW double counting   =      9265.41462517   -10065.47884051
  entropy T*S    EENTRO =        -0.00917616
  eigenvalues    EBANDS =     -1531.64305445
  atomic energy  EATOM  =     12421.61867991
  Solvation  Ediel_sol  =         0.00000000
  ---------------------------------------------------
  free energy    TOTEN  =       -29.36776337 eV

  energy without entropy =      -29.35858721  energy(sigma->0) =      -29.36317529


--------------------------------------------------------------------------------------------------------




--------------------------------------- Iteration      1(   4)  ---------------------------------------


     EDDAV:  cpu time    8.3123: real time    8.3132
       DOS:  cpu time    0.0099: real time    0.0099
    --------------------------------------------
      LOOP:  cpu time    8.3222: real time    8.3231

 eigenvalue-minimisations  : 28012
 total energy-change (2. order) :-0.4969141E+01  (-0.4880630E+01)
 number of electron     124.0000000 magnetization 
 augmentation part      124.0000000 magnetization 

 Free energy of the ion-electron system (eV)
  ---------------------------------------------------
  alpha Z        PSCENC =       256.86125899
  Ewald energy   TEWEN  =     -7063.07188753
  -Hartree energ DENC   =     -3479.35601172
  -exchange      EXHF   =         0.00000000
  -V(xc)+E(xc)   XCENC  =       166.29664293
  PAW double counting   =      9265.41462517   -10065.47884051
  entropy T*S    EENTRO =        -0.00931839
  eigenvalues    EBANDS =     -1536.61205358
  atomic energy  EATOM  =     12421.61867991
  Solvation  Ediel_sol  =         0.00000000
  ---------------------------------------------------
  free energy    TOTEN  =       -34.33690473 eV

  energy without entropy =      -34.32758634  energy(sigma->0) =      -34.33224554


--------------------------------------------------------------------------------------------------------




--------------------------------------- Iteration      1(   5)  ---------------------------------------


     EDDAV:  cpu time    9.4133: real time    9.4264
       DOS:  cpu time    0.0102: real time    0.0102
    CHARGE:  cpu time    0.5695: real time    0.5702
    MIXING:  cpu time    0.0198: real time    0.0201
    --------------------------------------------
      LOOP:  cpu time   10.0128: real time   10.0269

 eigenvalue-minimisations  : 33254
 total energy-change (2. order) :-0.1586470E+00  (-0.1583543E+00)
 number of electron     123.9999730 magnetization 
 augmentation part       71.3905916 magnetization 

 Broyden mixing:
  rms(total) = 0.47490E+00    rms(broyden)= 0.47488E+00
  rms(prec ) = 0.99944E+00
  weight for this iteration     100.00

 Free energy of the ion-electron system (eV)
  ---------------------------------------------------
  alpha Z        PSCENC =       256.86125899
  Ewald energy   TEWEN  =     -7063.07188753
  -Hartree energ DENC   =     -3479.35601172
  -exchange      EXHF   =         0.00000000
  -V(xc)+E(xc)   XCENC  =       166.29664293
  PAW double counting   =      9265.41462517   -10065.47884051
  entropy T*S    EENTRO =        -0.00927986
  eigenvalues    EBANDS =     -1536.77073913
  atomic energy  EATOM  =     12421.61867991
  Solvation  Ediel_sol  =         0.00000000
  ---------------------------------------------------
  free energy    TOTEN  =       -34.49555176 eV

  energy without entropy =      -34.48627189  energy(sigma->0) =      -34.49091183


--------------------------------------------------------------------------------------------------------




--------------------------------------- Iteration      1(   6)  ---------------------------------------


    POTLOK:  cpu time    0.2106: real time    0.2216
    SETDIJ:  cpu time    0.6568: real time    0.6568
    EDDIAG:  cpu time    1.5048: real time    1.5051
  RMM-DIIS:  cpu time    6.3185: real time    6.3195
    ORTHCH:  cpu time    0.1066: real time    0.1066
       DOS:  cpu time    0.0097: real time    0.0097
    CHARGE:  cpu time    0.5537: real time    0.5537
    MIXING:  cpu time    0.0118: real time    0.0119
    --------------------------------------------
      LOOP:  cpu time    9.3725: real time    9.3849

 eigenvalue-minimisations  : 27196
 total energy-change (2. order) : 0.1068637E+01  (-0.5353941E+00)
 number of electron     123.9999731 magnetization 
 augmentation part       70.5580091 magnetization 

 Broyden mixing:
  rms(total) = 0.47501E+00    rms(broyden)= 0.47500E+00
  rms(prec ) = 0.62200E+00
  weight for this iteration     100.00

 eigenvalues of (default mixing * dielectric matrix)
  average eigenvalue GAMMA=   0.4420
  0.4420

 Free energy of the ion-electron system (eV)
  ---------------------------------------------------
  alpha Z        PSCENC =       256.86125899
  Ewald energy   TEWEN  =     -7063.07188753
  -Hartree energ DENC   =     -3496.53491216
  -exchange      EXHF   =         0.00000000
  -V(xc)+E(xc)   XCENC  =       167.33291138
  PAW double counting   =      9472.00215837   -10273.15430434
  entropy T*S    EENTRO =        -0.00938299
  eigenvalues    EBANDS =     -1518.47143612
  atomic energy  EATOM  =     12421.61867991
  Solvation  Ediel_sol  =         0.00000000
  ---------------------------------------------------
  free energy    TOTEN  =       -33.42691450 eV

  energy without entropy =      -33.41753151  energy(sigma->0) =      -33.42222301


--------------------------------------------------------------------------------------------------------




--------------------------------------- Iteration      1(   7)  ---------------------------------------


    POTLOK:  cpu time    0.1872: real time    0.2078
    SETDIJ:  cpu time    0.6559: real time    0.6559
    EDDIAG:  cpu time    1.6534: real time    1.6536
  RMM-DIIS:  cpu time    6.6473: real time    6.6478
    ORTHCH:  cpu time    0.1061: real time    0.1061
[...]
  357            dfftw_execute                         0.028760                       33   5
  358            map_forward                           0.012285                       10   5
  359              map_gather                            0.005420                      5   6
  360              m_alltoallv_z                         0.002350                      5   6
  361              map_scatter                           0.004257                      5   6
  362            map_backward                          0.015155                       12   5
  363              map_gather                            0.005163                      6   6
  364              m_alltoallv_z                         0.002551                      6   6
  365              map_scatter                           0.007138                      6   6
  366        ggaall_grid                           0.083123                            1   3
  367        forhar                                0.082655                            2   3
  368          m_sumb_d                              0.000339                          2   4
  369        strehar                               0.008152                            1   3
  370          m_sumb_d                              0.000188                          1   4
  371        chggra                                0.024661                            1   3
  372          fft3d_mpi                             0.016970                          3   4
  373            fftbas_plan_mpi                       0.015832                        3   5
  374              dfftw_execute                         0.007730                      9   6
  375              map_backward                          0.002505                      2   6
  376                map_gather                            0.000823                    1   7
  377                m_alltoallv_z                         0.000480                    1   7
  378                map_scatter                           0.001143                    1   7
  379              map_forward                           0.004762                      4   6
  380                map_gather                            0.002083                    2   7
  381                m_alltoallv_z                         0.000957                    2   7
  382                map_scatter                           0.001614                    2   7
  383          m_sumb_d                              0.000069                          2   4
  384          pothar                                0.001375                          1   4
  385            m_sumb_d                              0.000075                        1   5
  386        brmix                                 0.011787                            1   3
  387          m_sumb_d                              0.000582                          6   4
  388          brpre                                 0.000090                          1   4
  389          setg0                                 0.004210                          1   4
  390          broyd                                 0.002304                          1   4
  391            m_sumb_d                              0.000468                       15   5
  392            brget                                 0.000443                       49   5
  393            brsav                                 0.000334                       13   5
  394          m_bcast_z                             0.001275                          1   4
  395          m_bcast_d                             0.000159                          1   4
  396        m_bcast_d                             0.000796                            2   3
  397      potlok                                0.202687                              2   2
  398        fft3d_mpi                             0.090891                           18   3
  399          fftbas_plan_mpi                       0.084503                         18   4
  400            dfftw_execute                         0.040786                       54   5
  401            map_forward                           0.020045                       20   5
  402              map_gather                            0.007526                     12   6
  403              m_alltoallv_z                         0.004345                     12   6
  404              map_scatter                           0.007634                     12   6
  405            map_backward                          0.019427                       16   5
  406              map_gather                            0.006434                      8   6
  407              m_alltoallv_z                         0.003499                      8   6
  408              map_scatter                           0.009095                      8   6
  409        ggaall_grid                           0.083333                            1   3
  410        m_sumb_d                              0.000165                            5   3
  411        pothar                                0.002712                            2   3
  412          m_sumb_d                              0.000103                          2   4
  413        m_bcast_d                             0.000302                            2   3
  414      potlok_metagga                        0.000003                              1   2
  415      set_dd_magatom                        0.000003                              1   2
  416      set_dd_paw                            0.645821                              1   2
  417        set_rsgf_all                          0.000005                            1   3
  418        m_sumb_d                              0.645634                            8   3
  419      augmentation_charge                   0.013701                              1   2
  420        m_sumb_d                              0.000201                            1   3
  421        fft3d_mpi                             0.005019                            1   3
  422          fftbas_plan_mpi                       0.004676                          1   4
  423            dfftw_execute                         0.002232                        3   5
  424            map_backward                          0.002223                        2   5
  425              map_gather                            0.000729                      1   6
  426              m_alltoallv_z                         0.000387                      1   6
  427              map_scatter                           0.001049                      1   6
  428      densta                                0.032446                              1   2
  429        m_sumb_d                              0.020273                           44   3
 
 Flat profile
 ============
 
             routine name                   CPU           calls
 ---------------------------------------------------------------
 total_time                             82.351180           1
 dfftw_execute                          25.320333      125397
 m_sumb_d                               20.708689      149329
 fftbas_plan_mpi                         8.257011       41801
 proj1                                   8.223288       16392
 gemm                                    7.113335      229712
 sphpro_fast                             6.632472           2
 m_alltoallv_z                           5.575189       41819
 eddav                                   5.404828           5
 crexp_mul_wave                          4.003448      262272
 vnlac0                                  3.974102       14357
 work_mul_crexp                          3.627076      229712
 vhamil                                  3.586213       17613
 fftwav_mpi                              3.514781       24007
 map_forward                             3.220899       48190
 map_scatter                             2.955450       41819
 eccp                                    2.860963       16399
 pdssyex_zheevx                          2.737386         143
 map_gather                              2.516865       41819
 spher                                   2.373209          20
 m_bcast_z                               2.350475       25499
 orth1                                   1.816155        5919
 m_alltoall_d                            1.782968       85421
 w1_dscal                                1.655052       21640
 w1_copy                                 1.589808       43071
 i2                                      1.435939        2125
 w1_daxpy                                1.387167       15704
 w1_gaxpy                                0.961860       15453
 ggaall_grid                             0.916088          11
 fftext_mpi                              0.817090       17613
 fornl                                   0.809873           1
 redis_pw                                0.781967       18404
 hamiltmu                                0.776329        3911
 elmin                                   0.699829           1
 map_backward                            0.667488       35408
 fft3d_mpi                               0.619219       41799
 lincom                                  0.617144         242
 w1_gemv                                 0.599387       22754
 zhegv                                   0.580678        4596
 i3                                      0.578536        2125
 pw_charge                               0.520965        3138
 redis_proj                              0.501749       22621
 kinhamil                                0.451785       17613
 cnorma                                  0.438942       11108
 apply_precond                           0.414817       23179
 newband                                 0.399840        4054
 eddiag                                  0.357143           8
 overl1                                  0.336947       25734
 setdij_                                 0.261190          37
 potlok                                  0.238916          11
 setup_precond                           0.227506        5291
 phase                                   0.220483         265
 m_bcast_d                               0.205008        3599
 eccp_nl                                 0.171948       11108
 overl                                   0.157014       11162
 eddrmm                                  0.145023           8
 w1_projall                              0.134954        3361
 w1_dot                                  0.117484        3256
 augmentation_charge                     0.096311          10
 i1                                      0.090004        2125
 soft_charge                             0.089562           9
 hamilt_local                            0.085646        3256
 forhar                                  0.082316           2
 densta                                  0.077302          14
 strenl                                  0.074112           1
 truncate_high_frequency_w1              0.068338       19648
 choleski                                0.051650          99
 forloc                                  0.041538           1
 setg0                                   0.040375          10
 stufak                                  0.029400           1
 brmix                                   0.027424           9
 force_and_stress                        0.018874           1
 pothar                                  0.016680          12
 orthch                                  0.016245           9
 depsum                                  0.012189           9
 strelo                                  0.008123           1
 strehar                                 0.007964           1
 chggra                                  0.006247           1
 broyd                                   0.006077           9
 strkin                                  0.004828           1
 fewald                                  0.004726           1
 proj                                    0.004642          11
 set_charge                              0.004147           9
 set_dd_paw                              0.002880          11
 brget                                   0.002214         255
 brsav                                   0.002201          82
 brgrid                                  0.001655           1
 brpre                                   0.000836           9
 rsp                                     0.000835           1
 fft_gq                                  0.000478           9
 shift_bands_between_low_high            0.000365          88
 crpa_reader                             0.000145           1
 fordep                                  0.000142           1
 vectorpot                               0.000127          10
 set_rsgf_all                            0.000093          11
 rcp                                     0.000077           1
 set_dd_magatom                          0.000041          11
 potlok_metagga                          0.000040          10
 FERMAT_RAZOR                            0.000014           1
 rotate_active_occupied_orbital          0.000011           1
 redis_pw_over_bands                     0.000004           1
 ---------------------------------------------------------------
  summed up times    232.678362131119     
 
 Accumulative profile
 ====================
 
             routine name                   CPU           calls
 ---------------------------------------------------------------
 total_time                            232.678362           1
 elmin                                 125.558369           1
 eddrmm                                 57.992746           8
 fft3d_mpi                              49.101104       41799
 fftbas_plan_mpi                        48.513235       41801
 eddav                                  41.551013           5
 hamiltmu                               36.300035        3911
 fftwav_mpi                             32.467234       24007
 dfftw_execute                          25.320333      125397
 m_sumb_d                               20.708689      149329
 kinhamil                               20.464582       17613
 fftext_mpi                             20.012798       17613
 i2                                     16.838445        2125
 vnlac0                                 15.838431       14357
 proj1                                  13.533414       16392
 eddiag                                 12.306668           8
 w1_projall                             10.416464        3361
 newband                                 9.570423        4054
 map_forward                             9.464026       48190
 force_and_stress                        7.912095           1
 i3                                      7.428197        2125
 gemm                                    7.113335      229712
 set_dd_paw                              7.026835          11
 sphpro_fast                             6.719794           2
 m_alltoallv_z                           5.575189       41819
 map_backward                            5.471866       35408
 strenl                                  5.260873           1
 set_charge                              5.053395           9
 soft_charge                             4.885666           9
 hamilt_local                            4.640663        3256
 crexp_mul_wave                          4.003448      262272
 eccp                                    3.673579       16399
 work_mul_crexp                          3.627076      229712
 vhamil                                  3.586213       17613
 map_scatter                             2.955450       41819
 pdssyex_zheevx                          2.737400         143
 map_gather                              2.516865       41819
 spher                                   2.373209          20
 m_bcast_z                               2.350475       25499
 redis_pw                                2.045538       18404
 potlok                                  1.824415          11
 orth1                                   1.816155        5919
 m_alltoall_d                            1.782968       85421
 w1_dscal                                1.655052       21640
 w1_copy                                 1.589808       43071
 w1_daxpy                                1.387167       15704
 w1_gemv                                 1.376334       22754
 cnorma                                  1.150856       11108
 redis_proj                              1.021146       22621
 orthch                                  0.998907           9
 w1_gaxpy                                0.961860       15453
 ggaall_grid                             0.916088          11
 fornl                                   0.899714           1
 lincom                                  0.617144         242
 zhegv                                   0.580705        4596
 pw_charge                               0.520965        3138
 apply_precond                           0.414817       23179
 setup_precond                           0.393449        5291
 overl1                                  0.336947       25734
 proj                                    0.332268          11
 setdij_                                 0.271315          37
 w1_dot                                  0.221537        3256
 i1                                      0.221345        2125
 phase                                   0.220483         265
 m_bcast_d                               0.205008        3599
 eccp_nl                                 0.171948       11108
 augmentation_charge                     0.160546          10
 overl                                   0.157014       11162
 densta                                  0.126882          14
 brmix                                   0.117571           9
 forhar                                  0.082655           2
 truncate_high_frequency_w1              0.068338       19648
 choleski                                0.051650          99
 fordep                                  0.044409           1
 forloc                                  0.041590           1
 setg0                                   0.040375          10
 stufak                                  0.029400           1
 chggra                                  0.024661           1
 pothar                                  0.017526          12
 depsum                                  0.016737           9
 fft_gq                                  0.014080           9
 broyd                                   0.013430           9
 fewald                                  0.012990           1
 strelo                                  0.008252           1
 strehar                                 0.008152           1
 strkin                                  0.005630           1
 brget                                   0.002214         255
 brsav                                   0.002201          82
 brgrid                                  0.001655           1
 brpre                                   0.000836           9
 rsp                                     0.000835           1
 shift_bands_between_low_high            0.000365          88
 crpa_reader                             0.000145           1
 vectorpot                               0.000127          10
 set_rsgf_all                            0.000093          11
 rcp                                     0.000077           1
 set_dd_magatom                          0.000041          11
 potlok_metagga                          0.000040          10
 FERMAT_RAZOR                            0.000014           1
 rotate_active_occupied_orbital          0.000011           1
 redis_pw_over_bands                     0.000004           1
 ---------------------------------------------------------------
 
Profiling took   4.560019  5.673860  0.006707  0.004989 seconds
Profiling took   4.925347 seconds
