 vasp.6.2.1 16May21 (build Jul 28 2021 23:24:15) complex                        
  
 executed on      IFC19_CrayMPICH date 2021.12.23  22:30:51
 running   64 mpi-ranks, with    1 threads/rank
 distrk:  each k-point on   64 cores,    1 groups
 distr:  one band on NCORE=   4 cores,   16 groups


--------------------------------------------------------------------------------------------------------


 INCAR:
   ALGO = Fast
   EDIFF = 1e-05
   EDIFFG = -0.03
   ENCUT = 450
   GGA = Rp
   IBRION = 2
   ISIF = 3
   ISMEAR = 0
   ISPIN = 2
   ISYM = 0
   IVDW = 0
   LASPH = True
   LCHARG = False
   LORBIT = 11
   LWAVE = False
   MAGMOM = 8*1.0
   NELM = 200
   NPAR = 16
   NSW = 200
   PREC = Accurate
   SIGMA = 0.05

 POTCAR:    PAW_PBE Mg 13Apr2007                  
 POTCAR:    PAW_PBE O 08Apr2002                   
 POTCAR:    PAW_PBE Mg 13Apr2007                  
   VRHFIN =Mg: s2p0                                                                                 
   LEXCH  = PE                                                                                      
   EATOM  =    23.0369 eV,    1.6932 Ry                                                             
                                                                                                    
   TITEL  = PAW_PBE Mg 13Apr2007                                                                    
   LULTRA =        F    use ultrasoft PP ?                                                          
   IUNSCR =        1    unscreen: 0-lin 1-nonlin 2-no                                               
   RPACOR =    1.500    partial core radius                                                         
   POMASS =   24.305; ZVAL   =    2.000    mass and valenz                                          
   RCORE  =    2.000    outmost cutoff radius                                                       
   RWIGS  =    2.880; RWIGS  =    1.524    wigner-seitz radius (au A)                               
   ENMAX  =  200.000; ENMIN  =  100.000 eV                                                          
   RCLOC  =    1.506    cutoff for local pot                                                        
   LCOR   =        T    correct aug charges                                                         
   LPAW   =        T    paw PP                                                                      
   EAUG   =  454.734                                                                                
   DEXC   =    0.000                                                                                
   RMAX   =    2.045    core radius for proj-oper                                                   
   RAUG   =    1.300    factor for augmentation sphere                                              
   RDEP   =    2.025    radius for radial grids                                                     
   RDEPT  =    1.942    core radius for aug-charge                                                  
                                                                                                    
   Atomic configuration                                                                             
    6 entries                                                                                       
     n  l   j            E        occ.                                                              
     1  0  0.50     -1259.6230   2.0000                                                             
     2  0  0.50       -79.8442   2.0000                                                             
     2  1  1.50       -46.6121   6.0000                                                             
     3  0  0.50        -4.7055   2.0000                                                             
     3  1  0.50        -1.3660   0.0000                                                             
     3  2  1.50        -1.3606   0.0000                                                             
   Description                                                                                      
     l       E           TYP  RCUT    TYP  RCUT                                                     
     0     -4.7054661     23  2.000                                                                 
     0     27.2116520     23  2.000                                                                 
     1      1.3605826     23  2.000                                                                 
     1     27.2116520     23  2.000                                                                 
     2     -1.3605826     23  2.000                                                                 
  local pseudopotential read in
  partial core-charges read in
  partial kinetic energy density read in
  atomic valenz-charges read in
  non local Contribution for L=           0  read in
    real space projection operators read in
  non local Contribution for L=           0  read in
    real space projection operators read in
  non local Contribution for L=           1  read in
    real space projection operators read in
  non local Contribution for L=           1  read in
    real space projection operators read in
  non local Contribution for L=           2  read in
    real space projection operators read in
    PAW grid and wavefunctions read in
 
   number of l-projection  operators is LMAX  =           5
   number of lm-projection operators is LMMAX =          13
 
 POTCAR:    PAW_PBE O 08Apr2002                   
   VRHFIN =O: s2p4                                                                                  
   LEXCH  = PE                                                                                      
   EATOM  =   432.3788 eV,   31.7789 Ry                                                             
                                                                                                    
   TITEL  = PAW_PBE O 08Apr2002                                                                     
   LULTRA =        F    use ultrasoft PP ?                                                          
   IUNSCR =        1    unscreen: 0-lin 1-nonlin 2-no                                               
   RPACOR =    1.200    partial core radius                                                         
   POMASS =   16.000; ZVAL   =    6.000    mass and valenz                                          
   RCORE  =    1.520    outmost cutoff radius                                                       
   RWIGS  =    1.550; RWIGS  =    0.820    wigner-seitz radius (au A)                               
   ENMAX  =  400.000; ENMIN  =  300.000 eV                                                          
   ICORE  =        2    local potential                                                             
   LCOR   =        T    correct aug charges                                                         
   LPAW   =        T    paw PP                                                                      
   EAUG   =  605.392                                                                                
   DEXC   =    0.000                                                                                
   RMAX   =    1.553    core radius for proj-oper                                                   
   RAUG   =    1.300    factor for augmentation sphere                                              
   RDEP   =    1.550    radius for radial grids                                                     
   RDEPT  =    1.329    core radius for aug-charge                                                  
                                                                                                    
   Atomic configuration                                                                             
    4 entries                                                                                       
     n  l   j            E        occ.                                                              
     1  0  0.50      -514.6923   2.0000                                                             
     2  0  0.50       -23.9615   2.0000                                                             
     2  1  0.50        -9.0305   4.0000                                                             
     3  2  1.50        -9.5241   0.0000                                                             
   Description                                                                                      
     l       E           TYP  RCUT    TYP  RCUT                                                     
     0    -23.9615318     23  1.200                                                                 
     0     -9.5240782     23  1.200                                                                 
     1     -9.0304911     23  1.520                                                                 
     1      8.1634956     23  1.520                                                                 
     2     -9.5240782      7  1.500                                                                 
  local pseudopotential read in
  partial core-charges read in
  partial kinetic energy density read in
  kinetic energy density of atom read in
  atomic valenz-charges read in
  non local Contribution for L=           0  read in
    real space projection operators read in
  non local Contribution for L=           0  read in
    real space projection operators read in
  non local Contribution for L=           1  read in
    real space projection operators read in
  non local Contribution for L=           1  read in
    real space projection operators read in
    PAW grid and wavefunctions read in
 
   number of l-projection  operators is LMAX  =           4
   number of lm-projection operators is LMMAX =           8
 
 -----------------------------------------------------------------------------
|                                                                             |
|               ----> ADVICE to this user running VASP <----                  |
|                                                                             |
|     You enforced a specific xc type in the INCAR file but a different       |
|     type was found in the POTCAR file.                                      |
|     I HOPE YOU KNOW WHAT YOU ARE DOING!                                     |
|                                                                             |
 -----------------------------------------------------------------------------

  PAW_PBE Mg 13Apr2007                  :
 energy of atom  1       EATOM=  -23.0369
 kinetic energy error for atom=    0.0001 (will be added to EATOM!!)
  PAW_PBE O 08Apr2002                   :
 energy of atom  2       EATOM= -432.3788
 kinetic energy error for atom=    0.0389 (will be added to EATOM!!)
 
 
 POSCAR: Mg  O
  positions in cartesian coordinates
  No initial velocities read in
 exchange correlation table for  LEXCH =        9
   RHO(1)=    0.500       N(1)  =     2000
   RHO(2)=  100.500       N(2)  =     4000
 


--------------------------------------------------------------------------------------------------------


 ion  position               nearest neighbor table
   1  0.000  0.000  0.000-   5 2.11   7 2.11   8 2.11   7 2.11   8 2.11   5 2.11   3 2.98   3 2.98
                             2 2.98   4 2.98   2 2.98   2 2.98   3 2.98   4 2.98   2 2.98   3 2.98
   2  0.000  0.500  0.500-   6 2.11   7 2.11   8 2.11   8 2.11   7 2.11   6 2.11   4 2.98   4 2.98
                             1 2.98   3 2.98   1 2.98   1 2.98   3 2.98   4 2.98   1 2.98   4 2.98
   3  0.500  0.000  0.500-   5 2.11   6 2.11   7 2.11   5 2.11   6 2.11   7 2.11   4 2.98   4 2.98
                             2 2.98   4 2.98   1 2.98   4 2.98   1 2.98   2 2.98   1 2.98   1 2.98
   4  0.500  0.500  0.000-   5 2.11   6 2.11   8 2.11   6 2.11   5 2.11   8 2.11   3 2.98   3 2.98
                             1 2.98   3 2.98   2 2.98   3 2.98   1 2.98   2 2.98   2 2.98   2 2.98
   5  0.500  0.000  0.000-   1 2.11   3 2.11   4 2.11   3 2.11   4 2.11   1 2.11
   6  0.500  0.500  0.500-   2 2.11   3 2.11   4 2.11   4 2.11   3 2.11   2 2.11
   7  0.000  0.000  0.500-   1 2.11   2 2.11   3 2.11   1 2.11   2 2.11   3 2.11
   8  0.000  0.500  0.000-   1 2.11   2 2.11   4 2.11   2 2.11   1 2.11   4 2.11
 

IMPORTANT INFORMATION: All symmetrisations will be switched off!
NOSYMM: (Re-)initialisation of all symmetry stuff for point group C_1.


----------------------------------------------------------------------------------------

                                     Primitive cell                                     

  volume of cell :      74.7781

  direct lattice vectors                    reciprocal lattice vectors
     4.213000000  0.000000000  0.000000000     0.237360551 -0.000000000  0.000000000
     0.000000000  4.213000000  0.000000000     0.000000000  0.237360551  0.000000000
     0.000000000  0.000000000  4.213000000    -0.000000000 -0.000000000  0.237360551

  length of vectors
     4.213000000  4.213000000  4.213000000     0.237360551  0.237360551  0.237360551

  position of ions in fractional coordinates (direct lattice)
     0.000000000  0.000000000  0.000000000
     0.000000000  0.500000000  0.500000000
     0.500000000  0.000000000  0.500000000
     0.500000000  0.500000000  1.000000000
     0.500000000  0.000000000  1.000000000
     0.500000000  0.500000000  0.500000000
     0.000000000  0.000000000  0.500000000
     0.000000000  0.500000000  1.000000000

  ion indices of the primitive-cell ions
   primitive index   ion index
                 1           1
                 2           2
                 3           3
                 4           4
                 5           5
                 6           6
                 7           7
                 8           8

----------------------------------------------------------------------------------------

 
 
 KPOINTS: KPOINTS created by Atomic Simulation Env

Automatic generation of k-mesh.
 Grid dimensions read from file:
 generate k-points for:   12   12    1

 Generating k-lattice:

  Cartesian coordinates                     Fractional coordinates (reciprocal lattice)
     0.019780046 -0.000000000  0.000000000     0.083333333  0.000000000  0.000000000
     0.000000000  0.019780046  0.000000000     0.000000000  0.083333333  0.000000000
    -0.000000000 -0.000000000  0.237360551    -0.000000000 -0.000000000  1.000000000

  Length of vectors
     0.019780046  0.019780046  0.237360551

  Shift w.r.t. Gamma in fractional coordinates (k-lattice)
     0.000000000  0.000000000  0.000000000

 -----------------------------------------------------------------------------
|                                                                             |
|           W    W    AA    RRRRR   N    N  II  N    N   GGGG   !!!           |
|           W    W   A  A   R    R  NN   N  II  NN   N  G    G  !!!           |
|           W    W  A    A  R    R  N N  N  II  N N  N  G       !!!           |
|           W WW W  AAAAAA  RRRRR   N  N N  II  N  N N  G  GGG   !            |
|           WW  WW  A    A  R   R   N   NN  II  N   NN  G    G                |
|           W    W  A    A  R    R  N    N  II  N    N   GGGG   !!!           |
|                                                                             |
|     Your reciprocal lattice and k-lattice belong to different lattice       |
|     classes:                                                                |
|                                                                             |
|        The reciprocal lattice is simple cubic,                              |
|        whereas your k-lattice is simple tetragonal.                         |
|                                                                             |
|     Results are often still useful ...                                      |
|                                                                             |
 -----------------------------------------------------------------------------

 WARNING: IBZKPT: internal override: KBLOWUP is changed to .FALSE.
      ... skipping the blow-up phase ...

 
 Subroutine IBZKPT returns following result:
 ===========================================
 
 Found     74 irreducible k-points:
 
 Following reciprocal coordinates:
            Coordinates               Weight
  0.000000  0.000000  0.000000      1.000000
  0.083333 -0.000000  0.000000      2.000000
  0.166667 -0.000000  0.000000      2.000000
  0.250000 -0.000000  0.000000      2.000000
  0.333333 -0.000000  0.000000      2.000000
  0.416667 -0.000000  0.000000      2.000000
  0.500000 -0.000000  0.000000      1.000000
  0.000000  0.083333  0.000000      2.000000
  0.083333  0.083333  0.000000      2.000000
  0.166667  0.083333  0.000000      2.000000
  0.250000  0.083333  0.000000      2.000000
  0.333333  0.083333  0.000000      2.000000
  0.416667  0.083333  0.000000      2.000000
  0.500000  0.083333  0.000000      2.000000
 -0.416667  0.083333  0.000000      2.000000
 -0.333333  0.083333  0.000000      2.000000
 -0.250000  0.083333  0.000000      2.000000
 -0.166667  0.083333  0.000000      2.000000
 -0.083333  0.083333  0.000000      2.000000
  0.000000  0.166667  0.000000      2.000000
  0.083333  0.166667  0.000000      2.000000
  0.166667  0.166667  0.000000      2.000000
  0.250000  0.166667  0.000000      2.000000
  0.333333  0.166667  0.000000      2.000000
  0.416667  0.166667  0.000000      2.000000
  0.500000  0.166667  0.000000      2.000000
 -0.416667  0.166667  0.000000      2.000000
 -0.333333  0.166667  0.000000      2.000000
 -0.250000  0.166667  0.000000      2.000000
 -0.166667  0.166667  0.000000      2.000000
 -0.083333  0.166667  0.000000      2.000000
  0.000000  0.250000  0.000000      2.000000
  0.083333  0.250000  0.000000      2.000000
  0.166667  0.250000  0.000000      2.000000
  0.250000  0.250000  0.000000      2.000000
  0.333333  0.250000  0.000000      2.000000
  0.416667  0.250000  0.000000      2.000000
  0.500000  0.250000  0.000000      2.000000
 -0.416667  0.250000  0.000000      2.000000
 -0.333333  0.250000  0.000000      2.000000
 -0.250000  0.250000  0.000000      2.000000
 -0.166667  0.250000  0.000000      2.000000
 -0.083333  0.250000  0.000000      2.000000
  0.000000  0.333333  0.000000      2.000000
  0.083333  0.333333  0.000000      2.000000
  0.166667  0.333333  0.000000      2.000000
  0.250000  0.333333  0.000000      2.000000
  0.333333  0.333333  0.000000      2.000000
  0.416667  0.333333  0.000000      2.000000
  0.500000  0.333333  0.000000      2.000000
 -0.416667  0.333333  0.000000      2.000000
 -0.333333  0.333333  0.000000      2.000000
 -0.250000  0.333333  0.000000      2.000000
 -0.166667  0.333333  0.000000      2.000000
 -0.083333  0.333333  0.000000      2.000000
  0.000000  0.416667  0.000000      2.000000
  0.083333  0.416667  0.000000      2.000000
  0.166667  0.416667  0.000000      2.000000
  0.250000  0.416667  0.000000      2.000000
  0.333333  0.416667  0.000000      2.000000
  0.416667  0.416667  0.000000      2.000000
  0.500000  0.416667  0.000000      2.000000
 -0.416667  0.416667  0.000000      2.000000
 -0.333333  0.416667  0.000000      2.000000
 -0.250000  0.416667  0.000000      2.000000
 -0.166667  0.416667  0.000000      2.000000
 -0.083333  0.416667  0.000000      2.000000
  0.000000  0.500000  0.000000      1.000000
  0.083333  0.500000  0.000000      2.000000
  0.166667  0.500000  0.000000      2.000000
  0.250000  0.500000  0.000000      2.000000
  0.333333  0.500000  0.000000      2.000000
  0.416667  0.500000  0.000000      2.000000
  0.500000  0.500000  0.000000      1.000000
 
 Following cartesian coordinates:
            Coordinates               Weight
  0.000000  0.000000  0.000000      1.000000
  0.019780 -0.000000  0.000000      2.000000
  0.039560 -0.000000  0.000000      2.000000
  0.059340 -0.000000  0.000000      2.000000
  0.079120 -0.000000  0.000000      2.000000
  0.098900 -0.000000  0.000000      2.000000
  0.118680 -0.000000  0.000000      1.000000
  0.000000  0.019780  0.000000      2.000000
  0.019780  0.019780  0.000000      2.000000
  0.039560  0.019780  0.000000      2.000000
  0.059340  0.019780  0.000000      2.000000
  0.079120  0.019780  0.000000      2.000000
  0.098900  0.019780  0.000000      2.000000
  0.118680  0.019780  0.000000      2.000000
 -0.098900  0.019780  0.000000      2.000000
 -0.079120  0.019780  0.000000      2.000000
 -0.059340  0.019780  0.000000      2.000000
 -0.039560  0.019780  0.000000      2.000000
 -0.019780  0.019780  0.000000      2.000000
  0.000000  0.039560  0.000000      2.000000
  0.019780  0.039560  0.000000      2.000000
  0.039560  0.039560  0.000000      2.000000
  0.059340  0.039560  0.000000      2.000000
  0.079120  0.039560  0.000000      2.000000
  0.098900  0.039560  0.000000      2.000000
  0.118680  0.039560  0.000000      2.000000
 -0.098900  0.039560  0.000000      2.000000
 -0.079120  0.039560  0.000000      2.000000
 -0.059340  0.039560  0.000000      2.000000
 -0.039560  0.039560  0.000000      2.000000
 -0.019780  0.039560  0.000000      2.000000
  0.000000  0.059340  0.000000      2.000000
  0.019780  0.059340  0.000000      2.000000
  0.039560  0.059340  0.000000      2.000000
  0.059340  0.059340  0.000000      2.000000
  0.079120  0.059340  0.000000      2.000000
  0.098900  0.059340  0.000000      2.000000
  0.118680  0.059340  0.000000      2.000000
 -0.098900  0.059340  0.000000      2.000000
 -0.079120  0.059340  0.000000      2.000000
 -0.059340  0.059340  0.000000      2.000000
 -0.039560  0.059340  0.000000      2.000000
 -0.019780  0.059340  0.000000      2.000000
  0.000000  0.079120  0.000000      2.000000
  0.019780  0.079120  0.000000      2.000000
  0.039560  0.079120  0.000000      2.000000
  0.059340  0.079120  0.000000      2.000000
  0.079120  0.079120  0.000000      2.000000
  0.098900  0.079120  0.000000      2.000000
  0.118680  0.079120  0.000000      2.000000
 -0.098900  0.079120  0.000000      2.000000
 -0.079120  0.079120  0.000000      2.000000
 -0.059340  0.079120  0.000000      2.000000
 -0.039560  0.079120  0.000000      2.000000
 -0.019780  0.079120  0.000000      2.000000
  0.000000  0.098900  0.000000      2.000000
  0.019780  0.098900  0.000000      2.000000
  0.039560  0.098900  0.000000      2.000000
  0.059340  0.098900  0.000000      2.000000
  0.079120  0.098900  0.000000      2.000000
  0.098900  0.098900  0.000000      2.000000
  0.118680  0.098900  0.000000      2.000000
 -0.098900  0.098900  0.000000      2.000000
 -0.079120  0.098900  0.000000      2.000000
 -0.059340  0.098900  0.000000      2.000000
 -0.039560  0.098900  0.000000      2.000000
 -0.019780  0.098900  0.000000      2.000000
  0.000000  0.118680  0.000000      1.000000
  0.019780  0.118680  0.000000      2.000000
  0.039560  0.118680  0.000000      2.000000
  0.059340  0.118680  0.000000      2.000000
  0.079120  0.118680  0.000000      2.000000
  0.098900  0.118680  0.000000      2.000000
  0.118680  0.118680  0.000000      1.000000
 


--------------------------------------------------------------------------------------------------------




 Dimension of arrays:
   k-points           NKPTS =     74   k-points in BZ     NKDIM =     74   number of bands    NBANDS=     32
   number of dos      NEDOS =    301   number of ions     NIONS =      8
   non local maximal  LDIM  =      5   non local SUM 2l+1 LMDIM =     13
   total plane-waves  NPLWV =  27000
   max r-space proj   IRMAX =      1   max aug-charges    IRDMAX=  15536
   dimension x,y,z NGX =    30 NGY =   30 NGZ =   30
   dimension x,y,z NGXF=    60 NGYF=   60 NGZF=   60
   support grid    NGXF=    60 NGYF=   60 NGZF=   60
   ions per type =               4   4
   NGX,Y,Z   is equivalent  to a cutoff of  11.84, 11.84, 11.84 a.u.
   NGXF,Y,Z  is equivalent  to a cutoff of  23.68, 23.68, 23.68 a.u.

 SYSTEM =  unknown system                          
 POSCAR =  Mg  O                                   

 Startparameter for this run:
   NWRITE =      2    write-flag & timer
   PREC   = accura    normal or accurate (medium, high low for compatibility)
   ISTART =      0    job   : 0-new  1-cont  2-samecut
   ICHARG =      2    charge: 1-file 2-atom 10-const
   ISPIN  =      2    spin polarized calculation?
   LNONCOLLINEAR =      F non collinear calculations
   LSORBIT =      F    spin-orbit coupling
   INIWAV =      1    electr: 0-lowe 1-rand  2-diag
   LASPH  =      T    aspherical Exc in radial PAW
 Electronic Relaxation 1
   ENCUT  =  450.0 eV  33.07 Ry    5.75 a.u.   7.29  7.29  7.29*2*pi/ulx,y,z
   ENINI  =  450.0     initial cutoff
   ENAUG  =  605.4 eV  augmentation charge cutoff
   NELM   =    200;   NELMIN=  2; NELMDL= -5     # of ELM steps 
   EDIFF  = 0.1E-04   stopping-criterion for ELM
   LREAL  =      F    real-space projection
   NLSPLINE    = F    spline interpolate recip. space projectors
   LCOMPAT=      F    compatible to vasp.4.4
   GGA_COMPAT  = T    GGA compatible to vasp.4.4-vasp.4.6
   LMAXPAW     = -100 max onsite density
   LMAXMIX     =    2 max onsite mixed and CHGCAR
   VOSKOWN=      0    Vosko Wilk Nusair interpolation
   ROPT   =    0.00000   0.00000
 Ionic relaxation
   EDIFFG = -.3E-01   stopping-criterion for IOM
   NSW    =    200    number of steps for IOM
   NBLOCK =      1;   KBLOCK =    200    inner block; outer block 
   IBRION =      2    ionic relax: 0-MD 1-quasi-New 2-CG
   NFREE  =      1    steps in history (QN), initial steepest desc. (CG)
   ISIF   =      3    stress and relaxation
   IWAVPR =     11    prediction:  0-non 1-charg 2-wave 3-comb
   ISYM   =      0    0-nonsym 1-usesym 2-fastsym
   LCORR  =      T    Harris-Foulkes like correction to forces

   POTIM  = 0.5000    time-step for ionic-motion
   TEIN   =    0.0    initial temperature
   TEBEG  =    0.0;   TEEND  =   0.0 temperature during run
   SMASS  =  -3.00    Nose mass-parameter (am)
   estimated Nose-frequenzy (Omega)   =  0.10E-29 period in steps = 0.13E+47 mass=  -0.406E-27a.u.
   SCALEE = 1.0000    scale energy and forces
   NPACO  =    256;   APACO  = 16.0  distance and # of slots for P.C.
   PSTRESS=    0.0 pullay stress

  Mass of Ions in am
   POMASS =  24.30 16.00
  Ionic Valenz
   ZVAL   =   2.00  6.00
  Atomic Wigner-Seitz radii
   RWIGS  =  -1.00 -1.00
  virtual crystal weights 
   VCA    =   1.00  1.00
   NELECT =      32.0000    total number of electrons
   NUPDOWN=      -1.0000    fix difference up-down

 DOS related values:
   EMIN   =  10.00;   EMAX   =-10.00  energy-range for DOS
   EFERMI =   0.00
   ISMEAR =     0;   SIGMA  =   0.05  broadening in eV -4-tet -1-fermi 0-gaus

 Electronic relaxation 2 (details)
   IALGO  =     68    algorithm
   LDIAG  =      T    sub-space diagonalisation (order eigenvalues)
   LSUBROT=      F    optimize rotation matrix (better conditioning)
   TURBO    =      0    0=normal 1=particle mesh
   IRESTART =      0    0=no restart 2=restart with 2 vectors
   NREBOOT  =      0    no. of reboots
   NMIN     =      0    reboot dimension
   EREF     =   0.00    reference energy to select bands
   IMIX   =      4    mixing-type and parameters
     AMIX     =   0.40;   BMIX     =  1.00
     AMIX_MAG =   1.60;   BMIX_MAG =  1.00
     AMIN     =   0.10
     WC   =   100.;   INIMIX=   1;  MIXPRE=   1;  MAXMIX= -45

 Intra band minimization:
   WEIMIN = 0.0010     energy-eigenvalue tresh-hold
   EBREAK =  0.78E-07  absolut break condition
   DEPER  =   0.30     relativ break condition  

   TIME   =   0.40     timestep for ELM

  volume/ion in A,a.u.               =       9.35        63.08
  Fermi-wavevector in a.u.,A,eV,Ry     =   1.233673  2.331304 20.707372  1.521949
  Thomas-Fermi vector in A             =   2.368394
 
 Write flags
   LWAVE        =      F    write WAVECAR
   LDOWNSAMPLE  =      F    k-point downsampling of WAVECAR
   LCHARG       =      F    write CHGCAR
   LVTOT        =      F    write LOCPOT, total local potential
   LVHAR        =      F    write LOCPOT, Hartree potential only
   LELF         =      F    write electronic localiz. function (ELF)
   LORBIT       =     11    0 simple, 1 ext, 2 COOP (PROOUT), +10 PAW based schemes


 Dipole corrections
   LMONO  =      F    monopole corrections only (constant potential shift)
   LDIPOL =      F    correct potential (dipole corrections)
   IDIPOL =      0    1-x, 2-y, 3-z, 4-all directions 
   EPSILON=  1.0000000 bulk dielectric constant

 Exchange correlation treatment:
   GGA     =    RP    GGA type
   LEXCH   =     9    internal setting for exchange type
   VOSKOWN=      0    Vosko Wilk Nusair interpolation
   LHFCALC =     F    Hartree Fock is set to
   LHFONE  =     F    Hartree Fock one center treatment
   AEXX    =    0.0000 exact exchange contribution

 Linear response parameters
   LEPSILON=     F    determine dielectric tensor
   LRPA    =     F    only Hartree local field effects (RPA)
   LNABLA  =     F    use nabla operator in PAW spheres
   LVEL    =     F    velocity operator in full k-point grid
   LINTERFAST=   F  fast interpolation
   KINTER  =     0    interpolate to denser k-point grid
   CSHIFT  =0.1000    complex shift for real part using Kramers Kronig
   OMEGAMAX=  -1.0    maximum frequency
   DEG_THRESHOLD= 0.2000000E-02 threshold for treating states as degnerate
   RTIME   =   -0.100 relaxation time in fs
  (WPLASMAI=    0.000 imaginary part of plasma frequency in eV, 0.658/RTIME)
   DFIELD  = 0.0000000 0.0000000 0.0000000 field for delta impulse in time
 
 Orbital magnetization related:
   ORBITALMAG=     F  switch on orbital magnetization
   LCHIMAG   =     F  perturbation theory with respect to B field
   DQ        =  0.001000  dq finite difference perturbation B field
   LLRAUG    =     F  two centre corrections for induced B field



--------------------------------------------------------------------------------------------------------


 conjugate gradient relaxation of ions
 charge density and potential will be updated during run
 spin polarized calculation
 RMM-DIIS sequential band-by-band and
  variant of blocked Davidson during initial phase
 perform sub-space diagonalisation
    before iterative eigenvector-optimisation
 modified Broyden-mixing scheme, WC =      100.0
 initial mixing is a Kerker type mixing with AMIX =  0.4000 and BMIX =      1.0000
 Hartree-type preconditioning will be used
 using additional bands           16
 reciprocal scheme for non local part
 use partial core corrections
 calculate Harris-corrections to forces 
   (improved forces if not selfconsistent)
 use gradient corrections 
 use of overlap-Matrix (Vanderbilt PP)
 Gauss-broadening in eV      SIGMA  =   0.05


--------------------------------------------------------------------------------------------------------


  energy-cutoff  :      450.00
  volume of cell :       74.78
      direct lattice vectors                 reciprocal lattice vectors
     4.213000000  0.000000000  0.000000000     0.237360551 -0.000000000  0.000000000
     0.000000000  4.213000000  0.000000000     0.000000000  0.237360551  0.000000000
     0.000000000  0.000000000  4.213000000    -0.000000000 -0.000000000  0.237360551

  length of vectors
     4.213000000  4.213000000  4.213000000     0.237360551  0.237360551  0.237360551


 
 k-points in units of 2pi/SCALE and weight: KPOINTS created by Atomic Simulation Env
   0.00000000  0.00000000  0.00000000       0.007
   0.01978005 -0.00000000  0.00000000       0.014
   0.03956009 -0.00000000  0.00000000       0.014
   0.05934014 -0.00000000  0.00000000       0.014
   0.07912018 -0.00000000  0.00000000       0.014
   0.09890023 -0.00000000  0.00000000       0.014
   0.11868028 -0.00000000  0.00000000       0.007
   0.00000000  0.01978005  0.00000000       0.014
   0.01978005  0.01978005  0.00000000       0.014
   0.03956009  0.01978005  0.00000000       0.014
   0.05934014  0.01978005  0.00000000       0.014
   0.07912018  0.01978005  0.00000000       0.014
   0.09890023  0.01978005  0.00000000       0.014
   0.11868028  0.01978005  0.00000000       0.014
  -0.09890023  0.01978005  0.00000000       0.014
  -0.07912018  0.01978005  0.00000000       0.014
  -0.05934014  0.01978005  0.00000000       0.014
  -0.03956009  0.01978005  0.00000000       0.014
  -0.01978005  0.01978005  0.00000000       0.014
   0.00000000  0.03956009  0.00000000       0.014
   0.01978005  0.03956009  0.00000000       0.014
   0.03956009  0.03956009  0.00000000       0.014
   0.05934014  0.03956009  0.00000000       0.014
   0.07912018  0.03956009  0.00000000       0.014
   0.09890023  0.03956009  0.00000000       0.014
   0.11868028  0.03956009  0.00000000       0.014
  -0.09890023  0.03956009  0.00000000       0.014
  -0.07912018  0.03956009  0.00000000       0.014
  -0.05934014  0.03956009  0.00000000       0.014
  -0.03956009  0.03956009  0.00000000       0.014
  -0.01978005  0.03956009  0.00000000       0.014
   0.00000000  0.05934014  0.00000000       0.014
   0.01978005  0.05934014  0.00000000       0.014
   0.03956009  0.05934014  0.00000000       0.014
   0.05934014  0.05934014  0.00000000       0.014
   0.07912018  0.05934014  0.00000000       0.014
   0.09890023  0.05934014  0.00000000       0.014
   0.11868028  0.05934014  0.00000000       0.014
  -0.09890023  0.05934014  0.00000000       0.014
  -0.07912018  0.05934014  0.00000000       0.014
  -0.05934014  0.05934014  0.00000000       0.014
  -0.03956009  0.05934014  0.00000000       0.014
  -0.01978005  0.05934014  0.00000000       0.014
   0.00000000  0.07912018  0.00000000       0.014
   0.01978005  0.07912018  0.00000000       0.014
   0.03956009  0.07912018  0.00000000       0.014
   0.05934014  0.07912018  0.00000000       0.014
   0.07912018  0.07912018  0.00000000       0.014
   0.09890023  0.07912018  0.00000000       0.014
   0.11868028  0.07912018  0.00000000       0.014
  -0.09890023  0.07912018  0.00000000       0.014
  -0.07912018  0.07912018  0.00000000       0.014
  -0.05934014  0.07912018  0.00000000       0.014
  -0.03956009  0.07912018  0.00000000       0.014
  -0.01978005  0.07912018  0.00000000       0.014
   0.00000000  0.09890023  0.00000000       0.014
   0.01978005  0.09890023  0.00000000       0.014
   0.03956009  0.09890023  0.00000000       0.014
   0.05934014  0.09890023  0.00000000       0.014
   0.07912018  0.09890023  0.00000000       0.014
   0.09890023  0.09890023  0.00000000       0.014
   0.11868028  0.09890023  0.00000000       0.014
  -0.09890023  0.09890023  0.00000000       0.014
  -0.07912018  0.09890023  0.00000000       0.014
  -0.05934014  0.09890023  0.00000000       0.014
  -0.03956009  0.09890023  0.00000000       0.014
  -0.01978005  0.09890023  0.00000000       0.014
   0.00000000  0.11868028  0.00000000       0.007
   0.01978005  0.11868028  0.00000000       0.014
   0.03956009  0.11868028  0.00000000       0.014
   0.05934014  0.11868028  0.00000000       0.014
   0.07912018  0.11868028  0.00000000       0.014
   0.09890023  0.11868028  0.00000000       0.014
   0.11868028  0.11868028  0.00000000       0.007
 
 k-points in reciprocal lattice and weights: KPOINTS created by Atomic Simulation Env
   0.00000000  0.00000000  0.00000000       0.007
   0.08333333 -0.00000000  0.00000000       0.014
   0.16666667 -0.00000000  0.00000000       0.014
   0.25000000 -0.00000000  0.00000000       0.014
   0.33333333 -0.00000000  0.00000000       0.014
   0.41666667 -0.00000000  0.00000000       0.014
   0.50000000 -0.00000000  0.00000000       0.007
   0.00000000  0.08333333  0.00000000       0.014
   0.08333333  0.08333333  0.00000000       0.014
   0.16666667  0.08333333  0.00000000       0.014
   0.25000000  0.08333333  0.00000000       0.014
   0.33333333  0.08333333  0.00000000       0.014
   0.41666667  0.08333333  0.00000000       0.014
   0.50000000  0.08333333  0.00000000       0.014
  -0.41666667  0.08333333  0.00000000       0.014
  -0.33333333  0.08333333  0.00000000       0.014
  -0.25000000  0.08333333  0.00000000       0.014
  -0.16666667  0.08333333  0.00000000       0.014
  -0.08333333  0.08333333  0.00000000       0.014
   0.00000000  0.16666667  0.00000000       0.014
   0.08333333  0.16666667  0.00000000       0.014
   0.16666667  0.16666667  0.00000000       0.014
   0.25000000  0.16666667  0.00000000       0.014
   0.33333333  0.16666667  0.00000000       0.014
   0.41666667  0.16666667  0.00000000       0.014
   0.50000000  0.16666667  0.00000000       0.014
  -0.41666667  0.16666667  0.00000000       0.014
  -0.33333333  0.16666667  0.00000000       0.014
  -0.25000000  0.16666667  0.00000000       0.014
  -0.16666667  0.16666667  0.00000000       0.014
  -0.08333333  0.16666667  0.00000000       0.014
   0.00000000  0.25000000  0.00000000       0.014
   0.08333333  0.25000000  0.00000000       0.014
   0.16666667  0.25000000  0.00000000       0.014
   0.25000000  0.25000000  0.00000000       0.014
   0.33333333  0.25000000  0.00000000       0.014
   0.41666667  0.25000000  0.00000000       0.014
   0.50000000  0.25000000  0.00000000       0.014
  -0.41666667  0.25000000  0.00000000       0.014
  -0.33333333  0.25000000  0.00000000       0.014
  -0.25000000  0.25000000  0.00000000       0.014
  -0.16666667  0.25000000  0.00000000       0.014
  -0.08333333  0.25000000  0.00000000       0.014
   0.00000000  0.33333333  0.00000000       0.014
   0.08333333  0.33333333  0.00000000       0.014
   0.16666667  0.33333333  0.00000000       0.014
   0.25000000  0.33333333  0.00000000       0.014
   0.33333333  0.33333333  0.00000000       0.014
   0.41666667  0.33333333  0.00000000       0.014
   0.50000000  0.33333333  0.00000000       0.014
  -0.41666667  0.33333333  0.00000000       0.014
  -0.33333333  0.33333333  0.00000000       0.014
  -0.25000000  0.33333333  0.00000000       0.014
  -0.16666667  0.33333333  0.00000000       0.014
  -0.08333333  0.33333333  0.00000000       0.014
   0.00000000  0.41666667  0.00000000       0.014
   0.08333333  0.41666667  0.00000000       0.014
   0.16666667  0.41666667  0.00000000       0.014
   0.25000000  0.41666667  0.00000000       0.014
   0.33333333  0.41666667  0.00000000       0.014
   0.41666667  0.41666667  0.00000000       0.014
   0.50000000  0.41666667  0.00000000       0.014
  -0.41666667  0.41666667  0.00000000       0.014
  -0.33333333  0.41666667  0.00000000       0.014
  -0.25000000  0.41666667  0.00000000       0.014
  -0.16666667  0.41666667  0.00000000       0.014
  -0.08333333  0.41666667  0.00000000       0.014
   0.00000000  0.50000000  0.00000000       0.007
   0.08333333  0.50000000  0.00000000       0.014
   0.16666667  0.50000000  0.00000000       0.014
   0.25000000  0.50000000  0.00000000       0.014
   0.33333333  0.50000000  0.00000000       0.014
   0.41666667  0.50000000  0.00000000       0.014
   0.50000000  0.50000000  0.00000000       0.007
 
 position of ions in fractional coordinates (direct lattice) 
   0.00000000  0.00000000  0.00000000
   0.00000000  0.50000000  0.50000000
   0.50000000  0.00000000  0.50000000
   0.50000000  0.50000000  0.00000000
   0.50000000  0.00000000  0.00000000
   0.50000000  0.50000000  0.50000000
   0.00000000  0.00000000  0.50000000
   0.00000000  0.50000000  0.00000000
 
 position of ions in cartesian coordinates  (Angst):
   0.00000000  0.00000000  0.00000000
   0.00000000  2.10650000  2.10650000
   2.10650000  0.00000000  2.10650000
   2.10650000  2.10650000  0.00000000
   2.10650000  0.00000000  0.00000000
   2.10650000  2.10650000  2.10650000
   0.00000000  0.00000000  2.10650000
   0.00000000  2.10650000  0.00000000
 


--------------------------------------------------------------------------------------------------------


 k-point   1 :   0.0000 0.0000 0.0000  plane waves:    1647
 k-point   2 :   0.0833-0.0000 0.0000  plane waves:    1627
 k-point   3 :   0.1667-0.0000 0.0000  plane waves:    1631
 k-point   4 :   0.2500-0.0000 0.0000  plane waves:    1639
 k-point   5 :   0.3333-0.0000 0.0000  plane waves:    1614
 k-point   6 :   0.4167-0.0000 0.0000  plane waves:    1622
 k-point   7 :   0.5000-0.0000 0.0000  plane waves:    1622
 k-point   8 :   0.0000 0.0833 0.0000  plane waves:    1627
 k-point   9 :   0.0833 0.0833 0.0000  plane waves:    1633
 k-point  10 :   0.1667 0.0833 0.0000  plane waves:    1626
 k-point  11 :   0.2500 0.0833 0.0000  plane waves:    1627
 k-point  12 :   0.3333 0.0833 0.0000  plane waves:    1618
 k-point  13 :   0.4167 0.0833 0.0000  plane waves:    1620
 k-point  14 :   0.5000 0.0833 0.0000  plane waves:    1626
 k-point  15 :  -0.4167 0.0833 0.0000  plane waves:    1620
 k-point  16 :  -0.3333 0.0833 0.0000  plane waves:    1618
 k-point  17 :  -0.2500 0.0833 0.0000  plane waves:    1627
 k-point  18 :  -0.1667 0.0833 0.0000  plane waves:    1626
 k-point  19 :  -0.0833 0.0833 0.0000  plane waves:    1633
 k-point  20 :   0.0000 0.1667 0.0000  plane waves:    1631
 k-point  21 :   0.0833 0.1667 0.0000  plane waves:    1626
 k-point  22 :   0.1667 0.1667 0.0000  plane waves:    1638
 k-point  23 :   0.2500 0.1667 0.0000  plane waves:    1621
 k-point  24 :   0.3333 0.1667 0.0000  plane waves:    1614
 k-point  25 :   0.4167 0.1667 0.0000  plane waves:    1621
 k-point  26 :   0.5000 0.1667 0.0000  plane waves:    1622
 k-point  27 :  -0.4167 0.1667 0.0000  plane waves:    1621
 k-point  28 :  -0.3333 0.1667 0.0000  plane waves:    1614
 k-point  29 :  -0.2500 0.1667 0.0000  plane waves:    1621
 k-point  30 :  -0.1667 0.1667 0.0000  plane waves:    1638
 k-point  31 :  -0.0833 0.1667 0.0000  plane waves:    1626
 k-point  32 :   0.0000 0.2500 0.0000  plane waves:    1639
 k-point  33 :   0.0833 0.2500 0.0000  plane waves:    1627
 k-point  34 :   0.1667 0.2500 0.0000  plane waves:    1621
 k-point  35 :   0.2500 0.2500 0.0000  plane waves:    1608
 k-point  36 :   0.3333 0.2500 0.0000  plane waves:    1617
 k-point  37 :   0.4167 0.2500 0.0000  plane waves:    1625
 k-point  38 :   0.5000 0.2500 0.0000  plane waves:    1624
 k-point  39 :  -0.4167 0.2500 0.0000  plane waves:    1625
 k-point  40 :  -0.3333 0.2500 0.0000  plane waves:    1617
 k-point  41 :  -0.2500 0.2500 0.0000  plane waves:    1608
 k-point  42 :  -0.1667 0.2500 0.0000  plane waves:    1621
 k-point  43 :  -0.0833 0.2500 0.0000  plane waves:    1627
 k-point  44 :   0.0000 0.3333 0.0000  plane waves:    1614
 k-point  45 :   0.0833 0.3333 0.0000  plane waves:    1618
 k-point  46 :   0.1667 0.3333 0.0000  plane waves:    1614
 k-point  47 :   0.2500 0.3333 0.0000  plane waves:    1617
 k-point  48 :   0.3333 0.3333 0.0000  plane waves:    1614
 k-point  49 :   0.4167 0.3333 0.0000  plane waves:    1620
 k-point  50 :   0.5000 0.3333 0.0000  plane waves:    1622
 k-point  51 :  -0.4167 0.3333 0.0000  plane waves:    1620
 k-point  52 :  -0.3333 0.3333 0.0000  plane waves:    1614
 k-point  53 :  -0.2500 0.3333 0.0000  plane waves:    1617
 k-point  54 :  -0.1667 0.3333 0.0000  plane waves:    1614
 k-point  55 :  -0.0833 0.3333 0.0000  plane waves:    1618
 k-point  56 :   0.0000 0.4167 0.0000  plane waves:    1622
 k-point  57 :   0.0833 0.4167 0.0000  plane waves:    1620
 k-point  58 :   0.1667 0.4167 0.0000  plane waves:    1621
 k-point  59 :   0.2500 0.4167 0.0000  plane waves:    1625
 k-point  60 :   0.3333 0.4167 0.0000  plane waves:    1620
 k-point  61 :   0.4167 0.4167 0.0000  plane waves:    1628
 k-point  62 :   0.5000 0.4167 0.0000  plane waves:    1624
 k-point  63 :  -0.4167 0.4167 0.0000  plane waves:    1628
 k-point  64 :  -0.3333 0.4167 0.0000  plane waves:    1620
 k-point  65 :  -0.2500 0.4167 0.0000  plane waves:    1625
 k-point  66 :  -0.1667 0.4167 0.0000  plane waves:    1621
 k-point  67 :  -0.0833 0.4167 0.0000  plane waves:    1620
 k-point  68 :   0.0000 0.5000 0.0000  plane waves:    1622
 k-point  69 :   0.0833 0.5000 0.0000  plane waves:    1626
 k-point  70 :   0.1667 0.5000 0.0000  plane waves:    1622
 k-point  71 :   0.2500 0.5000 0.0000  plane waves:    1624
 k-point  72 :   0.3333 0.5000 0.0000  plane waves:    1622
 k-point  73 :   0.4167 0.5000 0.0000  plane waves:    1624
 k-point  74 :   0.5000 0.5000 0.0000  plane waves:    1628

 maximum and minimum number of plane-waves per node :       417      390

 maximum number of plane-waves:      1647
 maximum index in each direction: 
   IXMAX=    7   IYMAX=    7   IZMAX=    7
   IXMIN=   -7   IYMIN=   -7   IZMIN=   -7


 parallel 3D FFT for wavefunctions:
    minimum data exchange during FFTs selected (reduces bandwidth)
 parallel 3D FFT for charge:
    minimum data exchange during FFTs selected (reduces bandwidth)


 total amount of memory used by VASP MPI-rank0    39840. kBytes
=======================================================================

   base      :      30000. kBytes
   nonl-proj :       6456. kBytes
   fftplans  :        352. kBytes
   grid      :        879. kBytes
   one-center:         32. kBytes
   wavefun   :       2121. kBytes
 
     INWAV:  cpu time    0.0001: real time    0.0001
 Broyden mixing: mesh for mixing (old mesh)
   NGX = 15   NGY = 15   NGZ = 15
  (NGX  = 60   NGY  = 60   NGZ  = 60)
  gives a total of   3375 points

 initial charge density was supplied:
 charge density of overlapping atoms calculated
 number of electron      32.0000000 magnetization       8.0000000
 keeping initial charge density in first step


--------------------------------------------------------------------------------------------------------


 Maximum index for augmentation-charges          733 (set IRDMAX)


--------------------------------------------------------------------------------------------------------


 First call to EWALD:  gamma=   0.421
 Maximum number of real-space cells 3x 3x 3
 Maximum number of reciprocal cells 3x 3x 3

    FEWALD:  cpu time    0.0063: real time    0.0063


--------------------------------------- Iteration      1(   1)  ---------------------------------------


    POTLOK:  cpu time    0.0352: real time    0.0416
    SETDIJ:  cpu time    2.2129: real time    2.2133
     EDDAV:  cpu time    6.5274: real time    6.5504
       DOS:  cpu time    0.0060: real time    0.0063
    --------------------------------------------
      LOOP:  cpu time    8.7816: real time    8.8117

 eigenvalue-minimisations  :  9872
 total energy-change (2. order) : 0.9357417E+02  (-0.1558182E+04)
 number of electron      32.0000000 magnetization       8.0000000
 augmentation part       32.0000000 magnetization       8.0000000

 Free energy of the ion-electron system (eV)
  ---------------------------------------------------
  alpha Z        PSCENC =        78.16095655
  Ewald energy   TEWEN  =     -1432.44611325
  -Hartree energ DENC   =      -484.39893826
  -exchange      EXHF   =         0.00000000
  -V(xc)+E(xc)   XCENC  =       -83.52915011
  PAW double counting   =      1650.85545598    -1446.83107290
  entropy T*S    EENTRO =        -0.00059143
  eigenvalues    EBANDS =        -9.41593191
  atomic energy  EATOM  =      1821.17955448
  Solvation  Ediel_sol  =         0.00000000
  ---------------------------------------------------
  free energy    TOTEN  =        93.57416915 eV

  energy without entropy =       93.57476058  energy(sigma->0) =       93.57446487


--------------------------------------------------------------------------------------------------------




--------------------------------------- Iteration      1(   2)  ---------------------------------------


     EDDAV:  cpu time    8.4890: real time    8.4968
       DOS:  cpu time    0.0029: real time    0.0029
    --------------------------------------------
      LOOP:  cpu time    8.4918: real time    8.4996

 eigenvalue-minimisations  : 13264
 total energy-change (2. order) :-0.1358840E+03  (-0.1276987E+03)
 number of electron      32.0000000 magnetization       8.0000000
 augmentation part       32.0000000 magnetization       8.0000000

 Free energy of the ion-electron system (eV)
  ---------------------------------------------------
  alpha Z        PSCENC =        78.16095655
  Ewald energy   TEWEN  =     -1432.44611325
  -Hartree energ DENC   =      -484.39893826
  -exchange      EXHF   =         0.00000000
  -V(xc)+E(xc)   XCENC  =       -83.52915011
  PAW double counting   =      1650.85545598    -1446.83107290
  entropy T*S    EENTRO =        -0.00000000
  eigenvalues    EBANDS =      -145.30050032
  atomic energy  EATOM  =      1821.17955448
  Solvation  Ediel_sol  =         0.00000000
  ---------------------------------------------------
  free energy    TOTEN  =       -42.30980784 eV

  energy without entropy =      -42.30980784  energy(sigma->0) =      -42.30980784


--------------------------------------------------------------------------------------------------------




--------------------------------------- Iteration      1(   3)  ---------------------------------------


     EDDAV:  cpu time    7.0281: real time    7.0290
       DOS:  cpu time    0.0029: real time    0.0029
    --------------------------------------------
      LOOP:  cpu time    7.0313: real time    7.0322

 eigenvalue-minimisations  : 10752
 total energy-change (2. order) :-0.4781908E+01  (-0.4775479E+01)
 number of electron      32.0000000 magnetization       8.0000000
 augmentation part       32.0000000 magnetization       8.0000000

 Free energy of the ion-electron system (eV)
  ---------------------------------------------------
  alpha Z        PSCENC =        78.16095655
  Ewald energy   TEWEN  =     -1432.44611325
  -Hartree energ DENC   =      -484.39893826
  -exchange      EXHF   =         0.00000000
  -V(xc)+E(xc)   XCENC  =       -83.52915011
  PAW double counting   =      1650.85545598    -1446.83107290
  entropy T*S    EENTRO =        -0.00000000
  eigenvalues    EBANDS =      -150.08240803
  atomic energy  EATOM  =      1821.17955448
  Solvation  Ediel_sol  =         0.00000000
  ---------------------------------------------------
  free energy    TOTEN  =       -47.09171554 eV

  energy without entropy =      -47.09171554  energy(sigma->0) =      -47.09171554


--------------------------------------------------------------------------------------------------------




--------------------------------------- Iteration      1(   4)  ---------------------------------------


     EDDAV:  cpu time    8.4327: real time    8.4429
       DOS:  cpu time    0.0029: real time    0.0028
    --------------------------------------------
      LOOP:  cpu time    8.4352: real time    8.4455

 eigenvalue-minimisations  : 13120
 total energy-change (2. order) :-0.1445360E-01  (-0.1445304E-01)
 number of electron      32.0000000 magnetization       8.0000000
 augmentation part       32.0000000 magnetization       8.0000000

 Free energy of the ion-electron system (eV)
  ---------------------------------------------------
  alpha Z        PSCENC =        78.16095655
  Ewald energy   TEWEN  =     -1432.44611325
  -Hartree energ DENC   =      -484.39893826
  -exchange      EXHF   =         0.00000000
  -V(xc)+E(xc)   XCENC  =       -83.52915011
  PAW double counting   =      1650.85545598    -1446.83107290
  entropy T*S    EENTRO =        -0.00000000
  eigenvalues    EBANDS =      -150.09686163
  atomic energy  EATOM  =      1821.17955448
  Solvation  Ediel_sol  =         0.00000000
  ---------------------------------------------------
  free energy    TOTEN  =       -47.10616914 eV

  energy without entropy =      -47.10616914  energy(sigma->0) =      -47.10616914


--------------------------------------------------------------------------------------------------------




--------------------------------------- Iteration      1(   5)  ---------------------------------------


     EDDAV:  cpu time    7.0321: real time    7.0392
       DOS:  cpu time    0.0028: real time    0.0028
    CHARGE:  cpu time    0.0797: real time    0.0803
    MIXING:  cpu time    0.0030: real time    0.0040
    --------------------------------------------
      LOOP:  cpu time    7.1177: real time    7.1265

 eigenvalue-minimisations  : 10736
 total energy-change (2. order) :-0.6040577E-04  (-0.6040553E-04)
 number of electron      32.0000058 magnetization      -0.8300417
 augmentation part        3.2491116 magnetization      -0.8091926

 Broyden mixing:
  rms(total) = 0.20947E+01    rms(broyden)= 0.20944E+01
  rms(prec ) = 0.38410E+01
  weight for this iteration     100.00

 Free energy of the ion-electron system (eV)
  ---------------------------------------------------
  alpha Z        PSCENC =        78.16095655
  Ewald energy   TEWEN  =     -1432.44611325
  -Hartree energ DENC   =      -484.39893826
  -exchange      EXHF   =         0.00000000
  -V(xc)+E(xc)   XCENC  =       -83.52915011
  PAW double counting   =      1650.85545598    -1446.83107290
  entropy T*S    EENTRO =        -0.00000000
  eigenvalues    EBANDS =      -150.09692203
  atomic energy  EATOM  =      1821.17955448
  Solvation  Ediel_sol  =         0.00000000
  ---------------------------------------------------
  free energy    TOTEN  =       -47.10622955 eV

  energy without entropy =      -47.10622955  energy(sigma->0) =      -47.10622955


--------------------------------------------------------------------------------------------------------




--------------------------------------- Iteration      1(   6)  ---------------------------------------


    POTLOK:  cpu time    0.0539: real time    0.0542
    SETDIJ:  cpu time    2.2080: real time    2.2081
    EDDIAG:  cpu time    1.9769: real time    1.9782
  RMM-DIIS:  cpu time    1.7097: real time    1.7102
    ORTHCH:  cpu time    0.2385: real time    0.2385
       DOS:  cpu time    0.0024: real time    0.0024
    CHARGE:  cpu time    0.0766: real time    0.0766
    MIXING:  cpu time    0.0033: real time    0.0037
    --------------------------------------------
      LOOP:  cpu time    6.2691: real time    6.2718

 eigenvalue-minimisations  :  9472
 total energy-change (2. order) : 0.3263729E+01  (-0.1544663E+01)
 number of electron      32.0000048 magnetization       0.0480347
 augmentation part        2.6918605 magnetization      -0.0049400

 Broyden mixing:
  rms(total) = 0.58463E+00    rms(broyden)= 0.58408E+00
  rms(prec ) = 0.84484E+00
  weight for this iteration     100.00

 eigenvalues of (default mixing * dielectric matrix)
  average eigenvalue GAMMA=   0.8074
  0.8074

 Free energy of the ion-electron system (eV)
  ---------------------------------------------------
  alpha Z        PSCENC =        78.16095655
  Ewald energy   TEWEN  =     -1432.44611325
  -Hartree energ DENC   =      -560.39019651
  -exchange      EXHF   =         0.00000000
  -V(xc)+E(xc)   XCENC  =       -79.74487105
  PAW double counting   =      1954.85041354    -1752.03780399
  entropy T*S    EENTRO =        -0.00000000
  eigenvalues    EBANDS =       -73.41444051
  atomic energy  EATOM  =      1821.17955448
  Solvation  Ediel_sol  =         0.00000000
  ---------------------------------------------------
  free energy    TOTEN  =       -43.84250074 eV

  energy without entropy =      -43.84250074  energy(sigma->0) =      -43.84250074


--------------------------------------------------------------------------------------------------------




--------------------------------------- Iteration      1(   7)  ---------------------------------------


    POTLOK:  cpu time    0.0554: real time    0.0557
    SETDIJ:  cpu time    2.2174: real time    2.2175
    EDDIAG:  cpu time    1.9777: real time    1.9778
  RMM-DIIS:  cpu time    1.7070: real time    1.7071
    ORTHCH:  cpu time    0.2403: real time    0.2403
       DOS:  cpu time    0.0025: real time    0.0025
    CHARGE:  cpu time    0.0738: real time    0.0738
    MIXING:  cpu time    0.0020: real time    0.0021
    --------------------------------------------
      LOOP:  cpu time    6.2761: real time    6.2769

 eigenvalue-minimisations  :  9472
 total energy-change (2. order) :-0.1661524E+00  (-0.5524662E-01)
 number of electron      32.0000047 magnetization      -0.0417675
 augmentation part        2.6736642 magnetization      -0.0408656

 Broyden mixing:
  rms(total) = 0.31006E+00    rms(broyden)= 0.31000E+00
  rms(prec ) = 0.50448E+00
  weight for this iteration     100.00

 eigenvalues of (default mixing * dielectric matrix)
  average eigenvalue GAMMA=   0.8804
  0.8804  0.8804

 Free energy of the ion-electron system (eV)
  ---------------------------------------------------
  alpha Z        PSCENC =        78.16095655
  Ewald energy   TEWEN  =     -1432.44611325
  -Hartree energ DENC   =      -563.57388841
  -exchange      EXHF   =         0.00000000
  -V(xc)+E(xc)   XCENC  =       -79.44181069
  PAW double counting   =      2060.21224118    -1857.29431138
  entropy T*S    EENTRO =        -0.00000000
  eigenvalues    EBANDS =       -70.80528165
  atomic energy  EATOM  =      1821.17955448
  Solvation  Ediel_sol  =         0.00000000
  ---------------------------------------------------
  free energy    TOTEN  =       -44.00865319 eV

  energy without entropy =      -44.00865319  energy(sigma->0) =      -44.00865319


--------------------------------------------------------------------------------------------------------




--------------------------------------- Iteration      1(   8)  ---------------------------------------


    POTLOK:  cpu time    0.0700: real time    0.0707
    SETDIJ:  cpu time    2.2103: real time    2.2104
    EDDIAG:  cpu time    1.9746: real time    1.9747
  RMM-DIIS:  cpu time    1.7128: real time    1.7130
    ORTHCH:  cpu time    0.2379: real time    0.2379
       DOS:  cpu time    0.0025: real time    0.0025
    CHARGE:  cpu time    0.0740: real time    0.0740
    MIXING:  cpu time    0.0016: real time    0.0016
    --------------------------------------------
      LOOP:  cpu time    6.2835: real time    6.2847

 eigenvalue-minimisations  :  9472
 total energy-change (2. order) : 0.3746450E-02  (-0.5440009E-02)
 number of electron      32.0000048 magnetization      -0.0017468
 augmentation part        2.6953027 magnetization      -0.0060303

 Broyden mixing:
  rms(total) = 0.14857E+00    rms(broyden)= 0.14857E+00
  rms(prec ) = 0.25499E+00
  weight for this iteration     100.00

 eigenvalues of (default mixing * dielectric matrix)
  average eigenvalue GAMMA=   1.3529
  2.3262  0.8833  0.8491

 Free energy of the ion-electron system (eV)
  ---------------------------------------------------
  alpha Z        PSCENC =        78.16095655
  Ewald energy   TEWEN  =     -1432.44611325
  -Hartree energ DENC   =      -563.48655629
  -exchange      EXHF   =         0.00000000
  -V(xc)+E(xc)   XCENC  =       -79.27948197
  PAW double counting   =      2148.22469062    -1945.21289864
  entropy T*S    EENTRO =        -0.00000000
  eigenvalues    EBANDS =       -71.14505822
  atomic energy  EATOM  =      1821.17955448
  Solvation  Ediel_sol  =         0.00000000
  ---------------------------------------------------
  free energy    TOTEN  =       -44.00490674 eV

  energy without entropy =      -44.00490674  energy(sigma->0) =      -44.00490674


--------------------------------------------------------------------------------------------------------




--------------------------------------- Iteration      1(   9)  ---------------------------------------


    POTLOK:  cpu time    0.0534: real time    0.0537
    SETDIJ:  cpu time    2.2104: real time    2.2106
    EDDIAG:  cpu time    1.9797: real time    1.9799
  RMM-DIIS:  cpu time    1.7036: real time    1.7037
    ORTHCH:  cpu time    0.2388: real time    0.2388
       DOS:  cpu time    0.0025: real time    0.0025
    CHARGE:  cpu time    0.0741: real time    0.0742
    MIXING:  cpu time    0.0016: real time    0.0016
    --------------------------------------------
      LOOP:  cpu time    6.2642: real time    6.2650

 eigenvalue-minimisations  :  9472
 total energy-change (2. order) :-0.1230558E-01  (-0.4119964E-02)
 number of electron      32.0000048 magnetization       0.0069541
 augmentation part        2.7027450 magnetization       0.0060762

 Broyden mixing:
  rms(total) = 0.46279E-01    rms(broyden)= 0.46269E-01
  rms(prec ) = 0.71091E-01
  weight for this iteration     100.00

 eigenvalues of (default mixing * dielectric matrix)
  average eigenvalue GAMMA=   1.2412
  2.5556  0.8887  0.8887  0.6319

 Free energy of the ion-electron system (eV)
  ---------------------------------------------------
  alpha Z        PSCENC =        78.16095655
  Ewald energy   TEWEN  =     -1432.44611325
  -Hartree energ DENC   =      -566.35009328
  -exchange      EXHF   =         0.00000000
  -V(xc)+E(xc)   XCENC  =       -78.88375915
  PAW double counting   =      2243.81650147    -2040.77895402
  entropy T*S    EENTRO =        -0.00000000
  eigenvalues    EBANDS =       -68.71530511
  atomic energy  EATOM  =      1821.17955448
  Solvation  Ediel_sol  =         0.00000000
  ---------------------------------------------------
  free energy    TOTEN  =       -44.01721232 eV

  energy without entropy =      -44.01721232  energy(sigma->0) =      -44.01721232


--------------------------------------------------------------------------------------------------------




--------------------------------------- Iteration      1(  10)  ---------------------------------------


    POTLOK:  cpu time    0.0542: real time    0.0545
    SETDIJ:  cpu time    2.2162: real time    2.2163
    EDDIAG:  cpu time    1.9771: real time    1.9773
  RMM-DIIS:  cpu time    1.7084: real time    1.7085
    ORTHCH:  cpu time    0.2394: real time    0.2394
       DOS:  cpu time    0.0025: real time    0.0025
    CHARGE:  cpu time    0.0735: real time    0.0735
    MIXING:  cpu time    0.0018: real time    0.0018
    --------------------------------------------
      LOOP:  cpu time    6.2732: real time    6.2738

 eigenvalue-minimisations  :  9472
 total energy-change (2. order) : 0.1776005E-02  (-0.2486243E-03)
 number of electron      32.0000048 magnetization      -0.0002348
 augmentation part        2.6975955 magnetization       0.0001114

 Broyden mixing:
  rms(total) = 0.19292E-01    rms(broyden)= 0.19291E-01
  rms(prec ) = 0.31837E-01
  weight for this iteration     100.00

 eigenvalues of (default mixing * dielectric matrix)
  average eigenvalue GAMMA=   1.2282
  2.5195  1.0674  1.0674  0.8503  0.6365

 Free energy of the ion-electron system (eV)
  ---------------------------------------------------
  alpha Z        PSCENC =        78.16095655
  Ewald energy   TEWEN  =     -1432.44611325
  -Hartree energ DENC   =      -567.17570312
  -exchange      EXHF   =         0.00000000
  -V(xc)+E(xc)   XCENC  =       -78.82417051
  PAW double counting   =      2241.96819115    -2038.94975245
  entropy T*S    EENTRO =        -0.00000000
  eigenvalues    EBANDS =       -67.92839916
  atomic energy  EATOM  =      1821.17955448
  Solvation  Ediel_sol  =         0.00000000
  ---------------------------------------------------
  free energy    TOTEN  =       -44.01543631 eV

  energy without entropy =      -44.01543631  energy(sigma->0) =      -44.01543631


--------------------------------------------------------------------------------------------------------




--------------------------------------- Iteration      1(  11)  ---------------------------------------


    POTLOK:  cpu time    0.0549: real time    0.0551
    SETDIJ:  cpu time    2.2165: real time    2.2166
    EDDIAG:  cpu time    1.9870: real time    1.9871
  RMM-DIIS:  cpu time    1.7160: real time    1.7161
    ORTHCH:  cpu time    0.2420: real time    0.2420
       DOS:  cpu time    0.0024: real time    0.0024
    CHARGE:  cpu time    0.0742: real time    0.0742
    MIXING:  cpu time    0.0018: real time    0.0018
    --------------------------------------------
      LOOP:  cpu time    6.2948: real time    6.2954

 eigenvalue-minimisations  :  9472
 total energy-change (2. order) :-0.2906680E-03  (-0.4206688E-03)
 number of electron      32.0000048 magnetization      -0.0036673
 augmentation part        2.6903493 magnetization      -0.0035993

 Broyden mixing:
  rms(total) = 0.10362E-01    rms(broyden)= 0.10355E-01
  rms(prec ) = 0.19657E-01
  weight for this iteration     100.00

 eigenvalues of (default mixing * dielectric matrix)
  average eigenvalue GAMMA=   1.2490
  2.6010  1.6462  0.9118  0.9118  0.7911  0.6325

 Free energy of the ion-electron system (eV)
  ---------------------------------------------------
  alpha Z        PSCENC =        78.16095655
  Ewald energy   TEWEN  =     -1432.44611325
  -Hartree energ DENC   =      -568.05220137
  -exchange      EXHF   =         0.00000000
  -V(xc)+E(xc)   XCENC  =       -78.76244264
  PAW double counting   =      2230.83362846    -2027.84570607
  entropy T*S    EENTRO =        -0.00000000
  eigenvalues    EBANDS =       -67.08340313
  atomic energy  EATOM  =      1821.17955448
  Solvation  Ediel_sol  =         0.00000000
  ---------------------------------------------------
  free energy    TOTEN  =       -44.01572698 eV

  energy without entropy =      -44.01572698  energy(sigma->0) =      -44.01572698


--------------------------------------------------------------------------------------------------------




--------------------------------------- Iteration      1(  12)  ---------------------------------------


    POTLOK:  cpu time    0.0529: real time    0.0531
    SETDIJ:  cpu time    2.2065: real time    2.2066
    EDDIAG:  cpu time    1.9790: real time    1.9791
  RMM-DIIS:  cpu time    1.7125: real time    1.7127
    ORTHCH:  cpu time    0.2388: real time    0.2388
       DOS:  cpu time    0.0025: real time    0.0025
    CHARGE:  cpu time    0.0736: real time    0.0736
    MIXING:  cpu time    0.0019: real time    0.0019
    --------------------------------------------
      LOOP:  cpu time    6.2677: real time    6.2683

 eigenvalue-minimisations  :  9472
 total energy-change (2. order) : 0.4741309E-04  (-0.1644136E-04)
 number of electron      32.0000048 magnetization      -0.0004276
 augmentation part        2.6919294 magnetization      -0.0005608

 Broyden mixing:
  rms(total) = 0.39259E-02    rms(broyden)= 0.39259E-02
  rms(prec ) = 0.73315E-02
  weight for this iteration     100.00

 eigenvalues of (default mixing * dielectric matrix)
  average eigenvalue GAMMA=   1.3363
  2.7808  1.8606  1.4929  0.9989  0.8888  0.7068  0.6256

 Free energy of the ion-electron system (eV)
  ---------------------------------------------------
  alpha Z        PSCENC =        78.16095655
  Ewald energy   TEWEN  =     -1432.44611325
  -Hartree energ DENC   =      -567.79088084
  -exchange      EXHF   =         0.00000000
  -V(xc)+E(xc)   XCENC  =       -78.77360907
  PAW double counting   =      2227.07897733    -2024.09104585
  entropy T*S    EENTRO =        -0.00000000
  eigenvalues    EBANDS =       -67.33351892
  atomic energy  EATOM  =      1821.17955448
  Solvation  Ediel_sol  =         0.00000000
  ---------------------------------------------------
  free energy    TOTEN  =       -44.01567957 eV

  energy without entropy =      -44.01567957  energy(sigma->0) =      -44.01567957


--------------------------------------------------------------------------------------------------------




--------------------------------------- Iteration      1(  13)  ---------------------------------------


    POTLOK:  cpu time    0.0540: real time    0.0542
    SETDIJ:  cpu time    2.2180: real time    2.2182
    EDDIAG:  cpu time    1.9799: real time    1.9800
  RMM-DIIS:  cpu time    1.7124: real time    1.7124
    ORTHCH:  cpu time    0.2399: real time    0.2400
       DOS:  cpu time    0.0024: real time    0.0024
    CHARGE:  cpu time    0.0739: real time    0.0739
    MIXING:  cpu time    0.0020: real time    0.0020
    --------------------------------------------
      LOOP:  cpu time    6.2825: real time    6.2831

 eigenvalue-minimisations  :  9472
 total energy-change (2. order) :-0.3977097E-05  (-0.1554135E-04)
 number of electron      32.0000048 magnetization       0.0000061
 augmentation part        2.6935819 magnetization      -0.0000261

 Broyden mixing:
  rms(total) = 0.19539E-02    rms(broyden)= 0.19513E-02
  rms(prec ) = 0.35764E-02
  weight for this iteration     100.00

 eigenvalues of (default mixing * dielectric matrix)
  average eigenvalue GAMMA=   1.2912
  2.8504  2.3948  1.0158  1.0158  0.8792  0.8792  0.6685  0.6257

 Free energy of the ion-electron system (eV)
  ---------------------------------------------------
  alpha Z        PSCENC =        78.16095655
  Ewald energy   TEWEN  =     -1432.44611325
  -Hartree energ DENC   =      -567.59912951
  -exchange      EXHF   =         0.00000000
  -V(xc)+E(xc)   XCENC  =       -78.78442098
  PAW double counting   =      2226.16213254    -2023.17179811
  entropy T*S    EENTRO =        -0.00000000
  eigenvalues    EBANDS =       -67.51686526
  atomic energy  EATOM  =      1821.17955448
  Solvation  Ediel_sol  =         0.00000000
  ---------------------------------------------------
  free energy    TOTEN  =       -44.01568355 eV

  energy without entropy =      -44.01568355  energy(sigma->0) =      -44.01568355


--------------------------------------------------------------------------------------------------------




--------------------------------------- Iteration      1(  14)  ---------------------------------------


    POTLOK:  cpu time    0.0556: real time    0.0561
    SETDIJ:  cpu time    2.2186: real time    2.2187
    EDDIAG:  cpu time    1.9784: real time    1.9786
  RMM-DIIS:  cpu time    1.6690: real time    1.6691
    ORTHCH:  cpu time    0.2393: real time    0.2393
       DOS:  cpu time    0.0023: real time    0.0023
    --------------------------------------------
      LOOP:  cpu time    6.1632: real time    6.1641

 eigenvalue-minimisations  :  7558
 total energy-change (2. order) : 0.4698935E-05  (-0.2214924E-05)
 number of electron      32.0000048 magnetization       0.0000061
 augmentation part        2.6935819 magnetization      -0.0000261

 Free energy of the ion-electron system (eV)
  ---------------------------------------------------
  alpha Z        PSCENC =        78.16095655
  Ewald energy   TEWEN  =     -1432.44611325
  -Hartree energ DENC   =      -567.67649972
  -exchange      EXHF   =         0.00000000
  -V(xc)+E(xc)   XCENC  =       -78.77944317
  PAW double counting   =      2225.38228146    -2022.39433503
  entropy T*S    EENTRO =        -0.00000000
  eigenvalues    EBANDS =       -67.44208017
  atomic energy  EATOM  =      1821.17955448
  Solvation  Ediel_sol  =         0.00000000
  ---------------------------------------------------
  free energy    TOTEN  =       -44.01567885 eV

  energy without entropy =      -44.01567885  energy(sigma->0) =      -44.01567885


--------------------------------------------------------------------------------------------------------




 average (electrostatic) potential at core
  the test charge radii are     1.0714  0.7215
  (the norm of the test charge is              1.0000)
       1 -35.1666       2 -35.1666       3 -35.1666       4 -35.1666       5 -69.4976
       6 -69.4976       7 -69.4976       8 -69.4976
 
 
 
 E-fermi :   3.6276     XC(G=0): -10.8428     alpha+bet :-13.1519

 Fermi energy:         3.6275789945

 spin component 1

 k-point     1 :       0.0000    0.0000    0.0000
  band No.  band energies     occupation 
      1     -13.9667      1.00000
      2     -12.4506      1.00000
      3     -12.4503      1.00000
      4     -12.4503      1.00000
      5      -0.6954      1.00000
      6      -0.6954      1.00000
      7      -0.6870      1.00000
      8       2.0250      1.00000
      9       2.0250      1.00000
     10       2.0250      1.00000
     11       2.0250      1.00000
     12       2.0353      1.00000
     13       2.0353      1.00000
     14       3.3657      1.00000
     15       3.3657      1.00000
     16       3.3762      1.00000
     17       8.1785      0.00000
     18      12.5696      0.00000
     19      12.5704      0.00000
     20      12.5704      0.00000
     21      13.5019      0.00000
     22      13.5027      0.00000
     23      13.5027      0.00000
     24      16.5778      0.00000
     25      16.5778      0.00000
     26      16.5851      0.00000
     27      19.2692      0.00000
     28      19.2707      0.00000
     29      19.2707      0.00000
     30      22.5153      0.00000
     31      22.5185      0.00000
     32      22.5240      0.00000

 k-point     2 :       0.0833   -0.0000    0.0000
  band No.  band energies     occupation 
      1     -13.9422      1.00000
      2     -12.4769      1.00000
      3     -12.4468      1.00000
      4     -12.4465      1.00000
      5      -0.6616      1.00000
      6      -0.6558      1.00000
      7      -0.6533      1.00000
      8       1.9571      1.00000
      9       1.9672      1.00000
     10       1.9961      1.00000
     11       1.9962      1.00000
     12       2.0447      1.00000
     13       2.0549      1.00000
     14       3.2224      1.00000
     15       3.3381      1.00000
     16       3.3486      1.00000
     17       8.3418      0.00000
     18      12.6281      0.00000
     19      12.6798      0.00000
     20      12.6808      0.00000
     21      13.4901      0.00000
     22      13.6094      0.00000
     23      13.6102      0.00000
     24      16.5414      0.00000
     25      16.5487      0.00000
     26      16.5844      0.00000
     27      18.8675      0.00000
     28      19.3316      0.00000
     29      19.3332      0.00000
     30      22.2804      0.00000
     31      22.3151      0.00000
     32      22.5199      0.00000

 k-point     3 :       0.1667   -0.0000    0.0000
  band No.  band energies     occupation 
      1     -13.8695      1.00000
      2     -12.5561      1.00000
      3     -12.4380      1.00000
      4     -12.4378      1.00000
      5      -0.5614      1.00000
      6      -0.5530      1.00000
      7      -0.5360      1.00000
      8       1.7642      1.00000
      9       1.7742      1.00000
     10       1.9176      1.00000
     11       1.9176      1.00000
     12       2.1015      1.00000
     13       2.1117      1.00000
     14       2.8472      1.00000
     15       3.2588      1.00000
     16       3.2693      1.00000
     17       8.7795      0.00000
     18      12.7998      0.00000
     19      12.9904      0.00000
     20      12.9917      0.00000
     21      13.4121      0.00000
     22      13.9174      0.00000
     23      13.9183      0.00000
     24      16.4247      0.00000
     25      16.4317      0.00000
     26      16.6543      0.00000
     27      18.0133      0.00000
     28      19.5129      0.00000
     29      19.5151      0.00000
     30      21.6575      0.00000
     31      21.6589      0.00000
     32      22.3161      0.00000

 k-point     4 :       0.2500   -0.0000    0.0000
  band No.  band energies     occupation 
      1     -13.7539      1.00000
      2     -12.6822      1.00000
      3     -12.4250      1.00000
      4     -12.4248      1.00000
      5      -0.3967      1.00000
      6      -0.3882      1.00000
      7      -0.3348      1.00000
      8       1.4790      1.00000
      9       1.4887      1.00000
     10       1.8134      1.00000
     11       1.8134      1.00000
     12       2.1931      1.00000
     13       2.2033      1.00000
     14       2.3418      1.00000
     15       3.1357      1.00000
     16       3.1461      1.00000
     17       9.3877      0.00000
     18      13.0856      0.00000
     19      13.1859      0.00000
     20      13.4526      0.00000
     21      13.4546      0.00000
     22      14.3875      0.00000
     23      14.3885      0.00000
     24      16.2288      0.00000
     25      16.2354      0.00000
     26      16.8987      0.00000
     27      17.0709      0.00000
     28      19.7945      0.00000
     29      19.7975      0.00000
     30      20.8467      0.00000
     31      20.8483      0.00000
     32      22.0608      0.00000

 k-point     5 :       0.3333   -0.0000    0.0000
  band No.  band energies     occupation 
      1     -13.6018      1.00000
      2     -12.8443      1.00000
      3     -12.4112      1.00000
      4     -12.4110      1.00000
      5      -0.1715      1.00000
      6      -0.1629      1.00000
      7      -0.0513      1.00000
      8       1.1393      1.00000
      9       1.1487      1.00000
     10       1.7123      1.00000
     11       1.7123      1.00000
     12       1.7922      1.00000
     13       2.3166      1.00000
     14       2.3268      1.00000
     15       2.9813      1.00000
     16       2.9917      1.00000
     17      10.0832      0.00000
     18      12.7714      0.00000
     19      13.4848      0.00000
     20      14.0026      0.00000
     21      14.0053      0.00000
     22      14.9509      0.00000
     23      14.9519      0.00000
     24      15.9487      0.00000
     25      15.9547      0.00000
     26      16.1667      0.00000
     27      17.3858      0.00000
     28      20.0047      0.00000
     29      20.0063      0.00000
     30      20.1500      0.00000
     31      20.1541      0.00000
     32      21.7306      0.00000

 k-point     6 :       0.4167   -0.0000    0.0000
  band No.  band energies     occupation 
      1     -13.4230      1.00000
      2     -13.0306      1.00000
      3     -12.4018      1.00000
      4     -12.4017      1.00000
      5       0.1069      1.00000
      6       0.1157      1.00000
      7       0.3128      1.00000
      8       0.7799      1.00000
      9       0.7891      1.00000
     10       1.2510      1.00000
     11       1.6392      1.00000
     12       1.6392      1.00000
     13       2.4661      1.00000
     14       2.4764      1.00000
     15       2.8091      1.00000
     16       2.8195      1.00000
     17      10.8117      0.00000
     18      12.2006      0.00000
     19      13.9958      0.00000
     20      14.5727      0.00000
     21      14.5762      0.00000
     22      15.3427      0.00000
     23      15.4746      0.00000
     24      15.4754      0.00000
     25      15.5732      0.00000
     26      15.5786      0.00000
     27      18.1067      0.00000
     28      19.3026      0.00000
     29      19.3037      0.00000
     30      20.0517      0.00000
     31      20.5501      0.00000
     32      20.5554      0.00000

 k-point     7 :       0.5000   -0.0000    0.0000
  band No.  band energies     occupation 
      1     -13.2284      1.00000
      2     -13.2284      1.00000
      3     -12.3980      1.00000
      4     -12.3980      1.00000
      5       0.4290      1.00000
      6       0.4290      1.00000
      7       0.4380      1.00000
      8       0.4380      1.00000
      9       0.7506      1.00000
     10       0.7506      1.00000
     11       1.6129      1.00000
     12       1.6129      1.00000
     13       2.6335      1.00000
     14       2.6335      1.00000
     15       2.6438      1.00000
     16       2.6438      1.00000
     17      11.5307      0.00000
     18      11.5307      0.00000
     19      14.6165      0.00000
     20      14.6165      0.00000
     21      15.1093      0.00000
     22      15.1093      0.00000
     23      15.1137      0.00000
     24      15.1137      0.00000
     25      15.7129      0.00000
     26      15.7129      0.00000
     27      19.0050      0.00000
     28      19.0050      0.00000
     29      19.0119      0.00000
     30      19.0119      0.00000
     31      20.9686      0.00000
     32      20.9701      0.00000

 k-point     8 :       0.0000    0.0833    0.0000
  band No.  band energies     occupation 
      1     -13.9422      1.00000
      2     -12.4769      1.00000
      3     -12.4468      1.00000
      4     -12.4465      1.00000
      5      -0.6616      1.00000
      6      -0.6558      1.00000
[...]
  375          m_sumb_d                              0.030484                          8   4
  376        m_sumb_d                              0.001549                           48   3
  377        fft3d_mpi                             0.108481                          176   3
  378          fftbas_plan_mpi                       0.104646                        176   4
  379            dfftw_execute                         0.017220                      528   5
  380            map_forward                           0.022560                      160   5
  381              map_gather                            0.001449                     80   6
  382              m_alltoallv_z                         0.016097                     80   6
  383              map_scatter                           0.002180                     80   6
  384            map_backward                          0.027395                      192   5
  385              map_gather                            0.001894                     96   6
  386              m_alltoallv_z                         0.019444                     96   6
  387              map_scatter                           0.002600                     96   6
  388        forhar                                0.011776                           16   3
  389          m_sumb_d                              0.000755                         16   4
  390        strehar                               0.002517                            8   3
  391          m_sumb_d                              0.000516                          8   4
  392        chggra                                0.018890                            8   3
  393          fft3d_mpi                             0.015070                         24   4
  394            fftbas_plan_mpi                       0.014564                       24   5
  395              dfftw_execute                         0.002506                     72   6
  396              map_backward                          0.002176                     16   6
  397                map_gather                            0.000145                    8   7
  398                m_alltoallv_z                         0.001531                    8   7
  399                map_scatter                           0.000213                    8   7
  400              map_forward                           0.004736                     32   6
  401                map_gather                            0.000305                   16   7
  402                m_alltoallv_z                         0.003424                   16   7
  403                map_scatter                           0.000435                   16   7
  404          m_sumb_d                              0.000356                         16   4
  405          pothar                                0.000906                          8   4
  406            m_sumb_d                              0.000403                        8   5
  407        brmix                                 0.012493                            8   3
  408          m_sumb_d                              0.000835                         48   4
  409          brpre                                 0.000225                         16   4
  410          setg0                                 0.001045                          8   4
  411          broyd                                 0.007571                          8   4
  412            m_sumb_d                              0.001562                       93   5
  413            brget                                 0.001235                      262   5
  414            brsav                                 0.000382                       79   5
  415        m_bcast_d                             0.000807                           16   3
  416      potlok                                0.196955                              8   2
  417        fft3d_mpi                             0.130050                          208   3
  418          fftbas_plan_mpi                       0.125354                        208   4
  419            dfftw_execute                         0.020544                      624   5
  420            map_forward                           0.031885                      224   5
  421              map_gather                            0.002030                    128   6
  422              m_alltoallv_z                         0.022509                    128   6
  423              map_scatter                           0.003027                    128   6
  424            map_backward                          0.027528                      192   5
  425              map_gather                            0.001882                     96   6
  426              m_alltoallv_z                         0.019563                     96   6
  427              map_scatter                           0.002558                     96   6
  428        m_sumb_d                              0.001031                           40   3
  429        pothar                                0.000951                            8   3
  430          m_sumb_d                              0.000395                          8   4
  431        m_bcast_d                             0.001516                           16   3
  432      potlok_metagga                        0.000031                              8   2
  433      set_dd_magatom                        0.000027                              8   2
  434      set_dd_paw                           17.648837                              8   2
  435        set_rsgf_all                          0.000030                            8   3
  436        m_sumb_d                             17.647495                           56   3
  437      densta                                0.004896                              1   2
  438        m_sumb_d                              0.001641                            8   3
 
 Flat profile
 ============
 
             routine name                   CPU           calls
 ---------------------------------------------------------------
 m_sumb_d                              159.607805      346664
 bg_pdssyex_zheevx                      68.127931        7400
 eddav                                  26.601744          12
 fftbas_plan_mpi                        20.409652      107312
 dfftw_execute                          15.740883      321930
 m_alltoall_d                           13.772945      222462
 proj1                                   6.540454       52609
 total_time                              6.196596           1
 m_alltoallv_z                           5.982645      107510
 vnlac0                                  4.498476       32481
 map_forward                             2.932948      125290
 bg_ppotrf_trtri                         2.829330        6808
 crexp_mul_wave                          2.769833      420872
 i2                                      2.582969       10479
 orth1                                   2.519804       32166
 fftwav_mpi                              2.511704       61785
 gemm                                    2.506603      259848
 elmin                                   2.458723           8
 eccp                                    2.103400       46623
 work_mul_crexp                          2.024143      259848
 vhamil                                  1.935710       43729
 m_bcast_z                               1.926831       26265
 map_gather                              1.912626      107510
 map_scatter                             1.836593      107510
 redis_proj                              1.735481       81368
 redis_pw                                1.727624       66206
 hamiltmu                                1.641297       22385
 map_backward                            1.495095       89330
 w1_copy                                 1.488526       97443
 sphpro_fast                             1.406205           9
 i3                                      1.335927       10479
 spher                                   1.323098         160
 fft3d_mpi                               1.313503      107310
 phase                                   1.255061       13920
 newband                                 1.166249       29785
 orth1_nosubindex                        1.151704       15984
 zhegv                                   1.136694        9327
 eddiag                                  1.133313          38
 fftext_mpi                              1.100643       43729
 lincom_slice                            1.089132       14208
 w1_daxpy                                1.050248       41150
 w1_dscal                                0.913933       48556
 cnorma                                  0.866432       31823
 kinhamil                                0.787728       43729
 eddrmm                                  0.772079          38
 w1_gemv                                 0.756782       37308
 overl                                   0.726912       32692
 setdij_                                 0.662188         263
 apply_precond                           0.584213       38256
 orthch                                  0.572224          46
 m_bcast_d                               0.563284       23953
 overl1                                  0.552833       51135
 fornl                                   0.546551           8
 lincom_distri                           0.455403       14208
 potlok                                  0.432040          54
 setup_precond                           0.416832       14800
 orth1_distri                            0.367904       12432
 eccp_nl                                 0.346814       31823
 w1_projall                              0.326222       18833
 m_sum_g                                 0.315474       26640
 bg_change_diagonale                     0.285152       62456
 i1                                      0.283753       10479
 strenl                                  0.277211           8
 hamilt_local                            0.253585       11248
 w1_dot                                  0.222456       11248
 pw_charge                               0.180066        6808
 augmentation_charge                     0.169993          46
 truncate_high_frequency_w1              0.165053       47281
 w1_gaxpy                                0.147758       18654
 soft_charge                             0.146638          46
 recon_slice                             0.118448       14208
 distri_slice                            0.116045       15984
 force_and_stress                        0.086826           8
 choleski                                0.078345        6808
 densta                                  0.071934          51
 depsum                                  0.030049          46
 proj                                    0.027373         592
 broyd                                   0.019857          46
 brmix                                   0.018852          46
 shift_bands_between_low_high            0.018832        5624
 set_dd_paw                              0.012102          62
 forhar                                  0.011021          16
 setg0                                   0.007045          62
 strkin                                  0.006639           8
 forloc                                  0.005335           8
 rsp                                     0.005144           8
 fewald                                  0.005084           8
 brget                                   0.004347        1031
 pothar                                  0.004137          62
 set_charge                              0.004021          46
 stufak                                  0.003520           8
 strelo                                  0.002789           8
 chggra                                  0.002558           8
 fft_gq                                  0.002088          46
 strehar                                 0.002000           8
 brsav                                   0.001804         367
 brpre                                   0.001575          92
 fordep                                  0.001159           8
 brgrid                                  0.000493           1
 rcp                                     0.000357           8
 set_rsgf_all                            0.000262          62
 set_dd_magatom                          0.000207          62
 potlok_metagga                          0.000205          54
 vectorpot                               0.000201          47
 crpa_reader                             0.000137           1
 rotate_active_occupied_orbital          0.000039           8
 redis_pw_over_bands                     0.000028           8
 FERMAT_RAZOR                            0.000021           1
 ---------------------------------------------------------------
  summed up times    396.648535013199     
 
 Accumulative profile
 ====================
 
             routine name                   CPU           calls
 ---------------------------------------------------------------
 total_time                            396.648535           1
 elmin                                 342.019282           8
 m_sumb_d                              159.607805      346664
 set_dd_paw                            136.978945          62
 eddav                                  86.957723          12
 eddiag                                 75.277509          38
 bg_pdssyex_zheevx                      68.127931        7400
 eddrmm                                 62.247450          38
 fft3d_mpi                              51.598459      107310
 fftbas_plan_mpi                        50.310441      107312
 fftwav_mpi                             31.680047       61785
 hamiltmu                               31.660576       22385
 force_and_stress                       25.898461           8
 kinhamil                               23.205267       43729
 fftext_mpi                             22.417540       43729
 i2                                     17.720612       10479
 dfftw_execute                          15.740883      321930
 m_alltoall_d                           13.772945      222462
 newband                                11.972478       29785
 proj1                                  11.326151       52609
 orthch                                 11.137910          46
 vnlac0                                 11.002101       32481
 redis_proj                              8.727958       81368
 redis_pw                                8.508092       66206
 map_forward                             8.347561      125290
 i3                                      8.027468       10479
 w1_projall                              7.268795       18833
 hamilt_local                            6.735636       11248
 m_alltoallv_z                           5.982645      107510
 strenl                                  5.963092           8
 map_backward                            5.812345       89330
 m_sum_g                                 4.517455       26640
 lincom_distri                           3.986554       14208
 eccp                                    3.681511       46623
 orth1_distri                            3.675591       12432
 set_charge                              3.432243          46
 soft_charge                             3.158226          46
 choleski                                2.907675        6808
 bg_ppotrf_trtri                         2.829330        6808
 crexp_mul_wave                          2.769833      420872
 orth1                                   2.519804       32166
 gemm                                    2.506603      259848
 cnorma                                  2.117919       31823
 work_mul_crexp                          2.024143      259848
 vhamil                                  1.935710       43729
 m_bcast_z                               1.926831       26265
 map_gather                              1.912626      107510
 map_scatter                             1.836593      107510
 w1_gemv                                 1.786263       37308
 w1_copy                                 1.488526       97443
 sphpro_fast                             1.425255           9
 potlok                                  1.330476          54
 spher                                   1.323098         160
 phase                                   1.255061       13920
 orth1_nosubindex                        1.151704       15984
 zhegv                                   1.136714        9327
 lincom_slice                            1.089132       14208
 w1_daxpy                                1.050248       41150
 w1_dscal                                0.913933       48556
 fornl                                   0.835449           8
 setup_precond                           0.774014       14800
 setdij_                                 0.728420         263
 overl                                   0.726912       32692
 apply_precond                           0.584213       38256
 m_bcast_d                               0.563284       23953
 overl1                                  0.552833       51135
 w1_dot                                  0.481197       11248
 proj                                    0.467853         592
 i1                                      0.462009       10479
 eccp_nl                                 0.346814       31823
 bg_change_diagonale                     0.285152       62456
 augmentation_charge                     0.234461          46
 pw_charge                               0.180066        6808
 truncate_high_frequency_w1              0.165053       47281
 w1_gaxpy                                0.147758       18654
 fordep                                  0.131628           8
 recon_slice                             0.118448       14208
 distri_slice                            0.116045       15984
 densta                                  0.094328          51
 brmix                                   0.068339          46
 fft_gq                                  0.053622          46
 depsum                                  0.035536          46
 broyd                                   0.034675          46
 chggra                                  0.018890           8
 shift_bands_between_low_high            0.018832        5624
 fewald                                  0.013094           8
 forhar                                  0.011776          16
 pothar                                  0.008055          62
 strkin                                  0.007227           8
 setg0                                   0.007045          62
 forloc                                  0.006305           8
 rsp                                     0.005144           8
 brget                                   0.004347        1031
 stufak                                  0.003520           8
 strelo                                  0.003428           8
 strehar                                 0.002517           8
 brsav                                   0.001804         367
 brpre                                   0.001575          92
 brgrid                                  0.000493           1
 rcp                                     0.000357           8
 set_rsgf_all                            0.000262          62
 set_dd_magatom                          0.000207          62
 potlok_metagga                          0.000205          54
 vectorpot                               0.000201          47
 crpa_reader                             0.000137           1
 rotate_active_occupied_orbital          0.000039           8
 redis_pw_over_bands                     0.000028           8
 FERMAT_RAZOR                            0.000021           1
 ---------------------------------------------------------------
 
Profiling took   9.109065 11.997830  0.006617  0.005020 seconds
Profiling took   8.976702 seconds
