
Host: LAPTOP-ROFVQCUO

Timers On : Sun Apr 17 21:16:48 2022
Timers Off: Sun Apr 17 21:16:49 2022

Wall Time:        1.35 seconds

                                                       Time (seconds)
Module                                       User      System        Wall        Calls

--------------------------------------------------------------------------------------

**************************************************************************************
