 vasp.6.2.1 16May21 (build Jul 28 2021 23:24:15) complex                        
  
 executed on      IFC19_CrayMPICH date 2022.01.03  14:08:12
 running  128 mpi-ranks, with    1 threads/rank
 distrk:  each k-point on    8 cores,   16 groups
 distr:  one band on NCORE=   4 cores,    2 groups


--------------------------------------------------------------------------------------------------------


 INCAR:
   ENCUT = 450.000000
   SIGMA = 0.050000
   EDIFF = 1.00e-05
   EDIFFG = -3.00e-02
   ALGO = fast
   GGA = RP
   PREC = accurate
   IBRION = 2
   ISIF = 2
   ISMEAR = 0
   ISYM = 0
   KPAR = 16
   LMAXMIX = 4
   LORBIT = 11
   NELM = 120
   NSW = 200
   IVDW = 0
   NCORE = 4
   LASPH = .TRUE.
   LCHARG = .FALSE.
   LWAVE = .FALSE.
   ISPIN = 2
   MAGMOM = 16*1.0000

 POTCAR:    PAW_PBE Na_pv 19Sep2006               
 POTCAR:    PAW_PBE Pd 04Jan2005                  
 POTCAR:    PAW_PBE Na_pv 19Sep2006               
   VRHFIN =Na: p6s1                                                                                 
   LEXCH  = PE                                                                                      
   EATOM  =   766.0439 eV,   56.3026 Ry                                                             
                                                                                                    
   TITEL  = PAW_PBE Na_pv 19Sep2006                                                                 
   LULTRA =        F    use ultrasoft PP ?                                                          
   IUNSCR =        1    unscreen: 0-lin 1-nonlin 2-no                                               
   RPACOR =    1.800    partial core radius                                                         
   POMASS =   22.990; ZVAL   =    7.000    mass and valenz                                          
   RCORE  =    2.200    outmost cutoff radius                                                       
   RWIGS  =    2.200; RWIGS  =    1.164    wigner-seitz radius (au A)                               
   ENMAX  =  259.561; ENMIN  =  194.671 eV                                                          
   ICORE  =        2    local potential                                                             
   LCOR   =        T    correct aug charges                                                         
   LPAW   =        T    paw PP                                                                      
   EAUG   =  368.056                                                                                
   DEXC   =    0.000                                                                                
   RMAX   =    2.245    core radius for proj-oper                                                   
   RAUG   =    1.300    factor for augmentation sphere                                              
   RDEP   =    2.259    radius for radial grids                                                     
   RDEPT  =    1.738    core radius for aug-charge                                                  
                                                                                                    
   Atomic configuration                                                                             
    5 entries                                                                                       
     n  l   j            E        occ.                                                              
     1  0  0.50     -1033.6933   2.0000                                                             
     2  0  0.50       -56.7526   2.0000                                                             
     2  1  1.50       -28.6721   6.0000                                                             
     3  0  0.50        -2.7440   1.0000                                                             
     3  2  1.50        -1.3606   0.0000                                                             
   Description                                                                                      
     l       E           TYP  RCUT    TYP  RCUT                                                     
     1    -28.6720912     23  2.000                                                                 
     1      6.8029130     23  2.000                                                                 
     0     -2.7439560     23  2.200                                                                 
     0     34.0145650     23  2.200                                                                 
     2     -1.3605826     23  2.200                                                                 
  local pseudopotential read in
  partial core-charges read in
  partial kinetic energy density read in
  atomic valenz-charges read in
  non local Contribution for L=           1  read in
    real space projection operators read in
  non local Contribution for L=           1  read in
    real space projection operators read in
  non local Contribution for L=           0  read in
    real space projection operators read in
  non local Contribution for L=           0  read in
    real space projection operators read in
    PAW grid and wavefunctions read in
 
   number of l-projection  operators is LMAX  =           4
   number of lm-projection operators is LMMAX =           8
 
 POTCAR:    PAW_PBE Pd 04Jan2005                  
   VRHFIN =Pd : s1 d9                                                                               
   LEXCH  = PE                                                                                      
   EATOM  =   809.7530 eV,   59.5152 Ry                                                             
                                                                                                    
   TITEL  = PAW_PBE Pd 04Jan2005                                                                    
   LULTRA =        F    use ultrasoft PP ?                                                          
   IUNSCR =        1    unscreen: 0-lin 1-nonlin 2-no                                               
   RPACOR =    2.000    partial core radius                                                         
   POMASS =  106.420; ZVAL   =   10.000    mass and valenz                                          
   RCORE  =    2.600    outmost cutoff radius                                                       
   RWIGS  =    2.710; RWIGS  =    1.434    wigner-seitz radius (au A)                               
   ENMAX  =  250.925; ENMIN  =  188.194 eV                                                          
   ICORE  =        3    local potential                                                             
   LCOR   =        T    correct aug charges                                                         
   LPAW   =        T    paw PP                                                                      
   EAUG   =  416.230                                                                                
   DEXC   =    0.000                                                                                
   RMAX   =    2.653    core radius for proj-oper                                                   
   RAUG   =    1.300    factor for augmentation sphere                                              
   RDEP   =    2.734    radius for radial grids                                                     
   RDEPT  =    2.103    core radius for aug-charge                                                  
                                                                                                    
   Atomic configuration                                                                             
   12 entries                                                                                       
     n  l   j            E        occ.                                                              
     1  0  0.50    -24164.6631   2.0000                                                             
     2  0  0.50     -3530.9218   2.0000                                                             
     2  1  1.50     -3165.6822   6.0000                                                             
     3  0  0.50      -639.4577   2.0000                                                             
     3  1  1.50      -519.4532   6.0000                                                             
     3  2  2.50      -328.9757  10.0000                                                             
     4  0  0.50       -88.7014   2.0000                                                             
     4  1  1.50       -54.4540   6.0000                                                             
     4  2  2.50        -6.6878   9.0000                                                             
     5  0  0.50        -4.3543   1.0000                                                             
     5  1  0.50        -1.3606   0.0000                                                             
     4  3  2.50        -1.3606   0.0000                                                             
   Description                                                                                      
     l       E           TYP  RCUT    TYP  RCUT                                                     
     2     -6.6878251     23  2.400                                                                 
     2     -8.0484077     23  2.400                                                                 
     0     -4.3542939     23  2.400                                                                 
     0      4.3406793     23  2.400                                                                 
     1     -4.0817478     23  2.600                                                                 
     1     15.8380318     23  2.600                                                                 
     3     -4.0817478     23  2.400                                                                 
  local pseudopotential read in
  partial core-charges read in
  partial kinetic energy density read in
  atomic valenz-charges read in
  non local Contribution for L=           2  read in
    real space projection operators read in
  non local Contribution for L=           2  read in
    real space projection operators read in
  non local Contribution for L=           0  read in
    real space projection operators read in
  non local Contribution for L=           0  read in
    real space projection operators read in
  non local Contribution for L=           1  read in
    real space projection operators read in
  non local Contribution for L=           1  read in
    real space projection operators read in
    PAW grid and wavefunctions read in
 
   number of l-projection  operators is LMAX  =           6
   number of lm-projection operators is LMMAX =          18
 
 -----------------------------------------------------------------------------
|                                                                             |
|               ----> ADVICE to this user running VASP <----                  |
|                                                                             |
|     You enforced a specific xc type in the INCAR file but a different       |
|     type was found in the POTCAR file.                                      |
|     I HOPE YOU KNOW WHAT YOU ARE DOING!                                     |
|                                                                             |
 -----------------------------------------------------------------------------

  PAW_PBE Na_pv 19Sep2006               :
 energy of atom  1       EATOM= -766.0439
 kinetic energy error for atom=    0.0042 (will be added to EATOM!!)
  PAW_PBE Pd 04Jan2005                  :
 energy of atom  2       EATOM= -809.7530
 kinetic energy error for atom=    0.0051 (will be added to EATOM!!)
 
 
 POSCAR: Na Pd
  positions in cartesian coordinates
  No initial velocities read in
 exchange correlation table for  LEXCH =        9
   RHO(1)=    0.500       N(1)  =     2000
   RHO(2)=  100.500       N(2)  =     4000
 


--------------------------------------------------------------------------------------------------------


 ion  position               nearest neighbor table
   1  0.250  0.750  0.750-
   2  0.250  0.250  0.750-
   3  0.500  0.000  0.000-
   4  0.250  0.250  0.250-
   5  0.250  0.750  0.250-
   6  0.500  0.500  0.500-
   7  0.750  0.750  0.250-
   8  0.750  0.250  0.250-
   9  0.000  0.000  0.500-
  10  0.750  0.250  0.750-
  11  0.750  0.750  0.750-
  12  0.000  0.500  0.000-
  13  0.000  0.000  0.000-
  14  0.000  0.500  0.500-
  15  0.500  0.000  0.500-
  16  0.500  0.500  0.000-
 

IMPORTANT INFORMATION: All symmetrisations will be switched off!
NOSYMM: (Re-)initialisation of all symmetry stuff for point group C_1.


----------------------------------------------------------------------------------------

                                     Primitive cell                                     

  volume of cell :     378.1809

  direct lattice vectors                    reciprocal lattice vectors
     7.231580000  0.000000000  0.000000000     0.138282367 -0.000000000  0.000000000
     0.000000000  7.231580000  0.000000000     0.000000000  0.138282367  0.000000000
     0.000000000  0.000000000  7.231580000    -0.000000000 -0.000000000  0.138282367

  length of vectors
     7.231580000  7.231580000  7.231580000     0.138282367  0.138282367  0.138282367

  position of ions in fractional coordinates (direct lattice)
     0.250000000  0.750000000  0.750000000
     0.250000000  0.250000000  0.750000000
     0.500000000  0.000000000  0.000000000
     0.250000000  0.250000000  0.250000000
     0.250000000  0.750000000  0.250000000
     0.500000000  0.500000000  0.500000000
     0.750000000  0.750000000  0.250000000
     0.750000000  0.250000000  0.250000000
     0.000000000  0.000000000  0.500000000
     0.750000000  0.250000000  0.750000000
     0.750000000  0.750000000  0.750000000
     0.000000000  0.500000000  1.000000000
     0.000000000  0.000000000  0.000000000
     0.000000000  0.500000000  0.500000000
     0.500000000  0.000000000  0.500000000
     0.500000000  0.500000000  0.000000000

  ion indices of the primitive-cell ions
   primitive index   ion index
                 1           1
                 2           2
                 3           3
                 4           4
                 5           5
                 6           6
                 7           7
                 8           8
                 9           9
                10          10
                11          11
                12          12
                13          13
                14          14
                15          15
                16          16

----------------------------------------------------------------------------------------

 
 
 KPOINTS: KPOINTS created by Atomic Simulation Env

Automatic generation of k-mesh.
 Grid dimensions read from file:
 generate k-points for:    7    7    7

 Generating k-lattice:

  Cartesian coordinates                     Fractional coordinates (reciprocal lattice)
     0.019754624 -0.000000000  0.000000000     0.142857143  0.000000000  0.000000000
     0.000000000  0.019754624  0.000000000     0.000000000  0.142857143  0.000000000
    -0.000000000 -0.000000000  0.019754624     0.000000000 -0.000000000  0.142857143

  Length of vectors
     0.019754624  0.019754624  0.019754624

  Shift w.r.t. Gamma in fractional coordinates (k-lattice)
     0.000000000  0.000000000  0.000000000

 
 Subroutine IBZKPT returns following result:
 ===========================================
 
 Found    172 irreducible k-points:
 
 Following reciprocal coordinates:
            Coordinates               Weight
  0.000000  0.000000  0.000000      1.000000
  0.142857 -0.000000  0.000000      2.000000
  0.000000  0.142857  0.000000      2.000000
 -0.000000 -0.000000  0.142857      2.000000
  0.285714 -0.000000  0.000000      2.000000
  0.000000  0.285714  0.000000      2.000000
 -0.000000 -0.000000  0.285714      2.000000
  0.428571 -0.000000  0.000000      2.000000
  0.000000  0.428571  0.000000      2.000000
 -0.000000 -0.000000  0.428571      2.000000
  0.142857  0.142857  0.000000      2.000000
 -0.000000  0.142857  0.142857      2.000000
  0.142857  0.000000  0.142857      2.000000
 -0.142857  0.142857  0.000000      2.000000
 -0.142857  0.000000  0.142857      2.000000
 -0.000000 -0.142857  0.142857      2.000000
  0.285714  0.142857  0.000000      2.000000
 -0.000000  0.285714  0.142857      2.000000
  0.142857 -0.000000  0.285714      2.000000
 -0.142857  0.285714  0.000000      2.000000
 -0.285714  0.000000  0.142857      2.000000
 -0.000000  0.142857  0.285714      2.000000
 -0.000000 -0.285714  0.142857      2.000000
 -0.142857 -0.000000  0.285714      2.000000
  0.285714 -0.000000  0.142857      2.000000
 -0.000000 -0.142857  0.285714      2.000000
  0.285714 -0.142857  0.000000      2.000000
  0.142857  0.285714  0.000000      2.000000
  0.428571  0.142857  0.000000      2.000000
 -0.000000  0.428571  0.142857      2.000000
  0.142857 -0.000000  0.428571      2.000000
 -0.142857  0.428571  0.000000      2.000000
 -0.428571 -0.000000  0.142857      2.000000
 -0.000000  0.142857  0.428571      2.000000
 -0.000000 -0.428571  0.142857      2.000000
 -0.142857 -0.000000  0.428571      2.000000
  0.428571 -0.000000  0.142857      2.000000
 -0.000000 -0.142857  0.428571      2.000000
  0.428571 -0.142857  0.000000      2.000000
  0.142857  0.428571  0.000000      2.000000
  0.285714  0.285714  0.000000      2.000000
 -0.000000  0.285714  0.285714      2.000000
  0.285714 -0.000000  0.285714      2.000000
 -0.285714  0.285714  0.000000      2.000000
 -0.285714  0.000000  0.285714      2.000000
 -0.000000 -0.285714  0.285714      2.000000
  0.428571  0.285714  0.000000      2.000000
 -0.000000  0.428571  0.285714      2.000000
  0.285714 -0.000000  0.428571      2.000000
 -0.285714  0.428571  0.000000      2.000000
 -0.428571  0.000000  0.285714      2.000000
 -0.000000  0.285714  0.428571      2.000000
 -0.000000 -0.428571  0.285714      2.000000
 -0.285714  0.000000  0.428571      2.000000
  0.428571 -0.000000  0.285714      2.000000
 -0.000000 -0.285714  0.428571      2.000000
  0.428571 -0.285714  0.000000      2.000000
  0.285714  0.428571  0.000000      2.000000
  0.428571  0.428571  0.000000      2.000000
 -0.000000  0.428571  0.428571      2.000000
  0.428571 -0.000000  0.428571      2.000000
 -0.428571  0.428571  0.000000      2.000000
 -0.428571  0.000000  0.428571      2.000000
 -0.000000 -0.428571  0.428571      2.000000
  0.142857  0.142857  0.142857      2.000000
 -0.142857  0.142857  0.142857      2.000000
 -0.142857 -0.142857  0.142857      2.000000
  0.142857 -0.142857  0.142857      2.000000
  0.285714  0.142857  0.142857      2.000000
  0.142857  0.285714  0.142857      2.000000
  0.142857  0.142857  0.285714      2.000000
 -0.142857  0.285714  0.142857      2.000000
 -0.285714  0.142857  0.142857      2.000000
 -0.142857  0.142857  0.285714      2.000000
 -0.285714 -0.142857  0.142857      2.000000
 -0.142857 -0.285714  0.142857      2.000000
 -0.142857 -0.142857  0.285714      2.000000
  0.142857 -0.285714  0.142857      2.000000
  0.285714 -0.142857  0.142857      2.000000
  0.142857 -0.142857  0.285714      2.000000
  0.428571  0.142857  0.142857      2.000000
  0.142857  0.428571  0.142857      2.000000
  0.142857  0.142857  0.428571      2.000000
 -0.142857  0.428571  0.142857      2.000000
 -0.428571  0.142857  0.142857      2.000000
 -0.142857  0.142857  0.428571      2.000000
 -0.428571 -0.142857  0.142857      2.000000
 -0.142857 -0.428571  0.142857      2.000000
 -0.142857 -0.142857  0.428571      2.000000
  0.142857 -0.428571  0.142857      2.000000
  0.428571 -0.142857  0.142857      2.000000
  0.142857 -0.142857  0.428571      2.000000
  0.285714  0.285714  0.142857      2.000000
  0.142857  0.285714  0.285714      2.000000
  0.285714  0.142857  0.285714      2.000000
 -0.285714  0.285714  0.142857      2.000000
 -0.285714  0.142857  0.285714      2.000000
 -0.142857  0.285714  0.285714      2.000000
 -0.285714 -0.285714  0.142857      2.000000
 -0.142857 -0.285714  0.285714      2.000000
 -0.285714 -0.142857  0.285714      2.000000
  0.285714 -0.285714  0.142857      2.000000
  0.285714 -0.142857  0.285714      2.000000
  0.142857 -0.285714  0.285714      2.000000
  0.428571  0.285714  0.142857      2.000000
  0.142857  0.428571  0.285714      2.000000
  0.285714  0.142857  0.428571      2.000000
 -0.285714  0.428571  0.142857      2.000000
 -0.428571  0.142857  0.285714      2.000000
 -0.142857  0.285714  0.428571      2.000000
 -0.428571 -0.285714  0.142857      2.000000
 -0.142857 -0.428571  0.285714      2.000000
 -0.285714 -0.142857  0.428571      2.000000
  0.285714 -0.428571  0.142857      2.000000
  0.428571 -0.142857  0.285714      2.000000
  0.142857 -0.285714  0.428571      2.000000
  0.142857 -0.428571 -0.285714      2.000000
  0.285714 -0.142857 -0.428571      2.000000
  0.428571 -0.285714 -0.142857      2.000000
  0.142857  0.285714 -0.428571      2.000000
  0.285714  0.428571 -0.142857      2.000000
  0.428571  0.142857 -0.285714      2.000000
 -0.285714  0.142857 -0.428571      2.000000
 -0.428571  0.285714 -0.142857      2.000000
 -0.142857  0.428571 -0.285714      2.000000
 -0.428571 -0.142857 -0.285714      2.000000
 -0.285714 -0.428571 -0.142857      2.000000
 -0.142857 -0.285714 -0.428571      2.000000
  0.428571  0.428571  0.142857      2.000000
  0.142857  0.428571  0.428571      2.000000
  0.428571  0.142857  0.428571      2.000000
 -0.428571  0.428571  0.142857      2.000000
 -0.428571  0.142857  0.428571      2.000000
 -0.142857  0.428571  0.428571      2.000000
 -0.428571 -0.428571  0.142857      2.000000
 -0.142857 -0.428571  0.428571      2.000000
 -0.428571 -0.142857  0.428571      2.000000
  0.428571 -0.428571  0.142857      2.000000
  0.428571 -0.142857  0.428571      2.000000
  0.142857 -0.428571  0.428571      2.000000
  0.285714  0.285714  0.285714      2.000000
 -0.285714  0.285714  0.285714      2.000000
 -0.285714 -0.285714  0.285714      2.000000
  0.285714 -0.285714  0.285714      2.000000
  0.428571  0.285714  0.285714      2.000000
  0.285714  0.428571  0.285714      2.000000
  0.285714  0.285714  0.428571      2.000000
 -0.285714  0.428571  0.285714      2.000000
 -0.428571  0.285714  0.285714      2.000000
 -0.285714  0.285714  0.428571      2.000000
 -0.428571 -0.285714  0.285714      2.000000
 -0.285714 -0.428571  0.285714      2.000000
 -0.285714 -0.285714  0.428571      2.000000
  0.285714 -0.428571  0.285714      2.000000
  0.428571 -0.285714  0.285714      2.000000
  0.285714 -0.285714  0.428571      2.000000
  0.428571  0.428571  0.285714      2.000000
  0.285714  0.428571  0.428571      2.000000
  0.428571  0.285714  0.428571      2.000000
 -0.428571  0.428571  0.285714      2.000000
 -0.428571  0.285714  0.428571      2.000000
 -0.285714  0.428571  0.428571      2.000000
 -0.428571 -0.428571  0.285714      2.000000
 -0.285714 -0.428571  0.428571      2.000000
 -0.428571 -0.285714  0.428571      2.000000
  0.428571 -0.428571  0.285714      2.000000
  0.428571 -0.285714  0.428571      2.000000
  0.285714 -0.428571  0.428571      2.000000
  0.428571  0.428571  0.428571      2.000000
 -0.428571  0.428571  0.428571      2.000000
 -0.428571 -0.428571  0.428571      2.000000
  0.428571 -0.428571  0.428571      2.000000
 
 Following cartesian coordinates:
            Coordinates               Weight
  0.000000  0.000000  0.000000      1.000000
  0.019755 -0.000000  0.000000      2.000000
  0.000000  0.019755  0.000000      2.000000
 -0.000000 -0.000000  0.019755      2.000000
  0.039509 -0.000000  0.000000      2.000000
  0.000000  0.039509  0.000000      2.000000
 -0.000000 -0.000000  0.039509      2.000000
  0.059264 -0.000000  0.000000      2.000000
  0.000000  0.059264  0.000000      2.000000
 -0.000000 -0.000000  0.059264      2.000000
  0.019755  0.019755  0.000000      2.000000
 -0.000000  0.019755  0.019755      2.000000
  0.019755 -0.000000  0.019755      2.000000
 -0.019755  0.019755  0.000000      2.000000
 -0.019755  0.000000  0.019755      2.000000
 -0.000000 -0.019755  0.019755      2.000000
  0.039509  0.019755  0.000000      2.000000
 -0.000000  0.039509  0.019755      2.000000
  0.019755 -0.000000  0.039509      2.000000
 -0.019755  0.039509  0.000000      2.000000
 -0.039509  0.000000  0.019755      2.000000
 -0.000000  0.019755  0.039509      2.000000
 -0.000000 -0.039509  0.019755      2.000000
 -0.019755  0.000000  0.039509      2.000000
  0.039509 -0.000000  0.019755      2.000000
 -0.000000 -0.019755  0.039509      2.000000
  0.039509 -0.019755  0.000000      2.000000
  0.019755  0.039509  0.000000      2.000000
  0.059264  0.019755  0.000000      2.000000
 -0.000000  0.059264  0.019755      2.000000
  0.019755 -0.000000  0.059264      2.000000
 -0.019755  0.059264  0.000000      2.000000
 -0.059264  0.000000  0.019755      2.000000
 -0.000000  0.019755  0.059264      2.000000
 -0.000000 -0.059264  0.019755      2.000000
 -0.019755  0.000000  0.059264      2.000000
  0.059264 -0.000000  0.019755      2.000000
 -0.000000 -0.019755  0.059264      2.000000
  0.059264 -0.019755  0.000000      2.000000
  0.019755  0.059264  0.000000      2.000000
  0.039509  0.039509  0.000000      2.000000
 -0.000000  0.039509  0.039509      2.000000
  0.039509 -0.000000  0.039509      2.000000
 -0.039509  0.039509  0.000000      2.000000
 -0.039509  0.000000  0.039509      2.000000
 -0.000000 -0.039509  0.039509      2.000000
  0.059264  0.039509  0.000000      2.000000
 -0.000000  0.059264  0.039509      2.000000
  0.039509 -0.000000  0.059264      2.000000
 -0.039509  0.059264  0.000000      2.000000
 -0.059264  0.000000  0.039509      2.000000
 -0.000000  0.039509  0.059264      2.000000
 -0.000000 -0.059264  0.039509      2.000000
 -0.039509  0.000000  0.059264      2.000000
  0.059264 -0.000000  0.039509      2.000000
 -0.000000 -0.039509  0.059264      2.000000
  0.059264 -0.039509  0.000000      2.000000
  0.039509  0.059264  0.000000      2.000000
  0.059264  0.059264  0.000000      2.000000
 -0.000000  0.059264  0.059264      2.000000
  0.059264 -0.000000  0.059264      2.000000
 -0.059264  0.059264  0.000000      2.000000
 -0.059264  0.000000  0.059264      2.000000
 -0.000000 -0.059264  0.059264      2.000000
  0.019755  0.019755  0.019755      2.000000
 -0.019755  0.019755  0.019755      2.000000
 -0.019755 -0.019755  0.019755      2.000000
  0.019755 -0.019755  0.019755      2.000000
  0.039509  0.019755  0.019755      2.000000
  0.019755  0.039509  0.019755      2.000000
  0.019755  0.019755  0.039509      2.000000
 -0.019755  0.039509  0.019755      2.000000
 -0.039509  0.019755  0.019755      2.000000
 -0.019755  0.019755  0.039509      2.000000
 -0.039509 -0.019755  0.019755      2.000000
 -0.019755 -0.039509  0.019755      2.000000
 -0.019755 -0.019755  0.039509      2.000000
  0.019755 -0.039509  0.019755      2.000000
  0.039509 -0.019755  0.019755      2.000000
  0.019755 -0.019755  0.039509      2.000000
  0.059264  0.019755  0.019755      2.000000
  0.019755  0.059264  0.019755      2.000000
  0.019755  0.019755  0.059264      2.000000
 -0.019755  0.059264  0.019755      2.000000
 -0.059264  0.019755  0.019755      2.000000
 -0.019755  0.019755  0.059264      2.000000
 -0.059264 -0.019755  0.019755      2.000000
 -0.019755 -0.059264  0.019755      2.000000
 -0.019755 -0.019755  0.059264      2.000000
  0.019755 -0.059264  0.019755      2.000000
  0.059264 -0.019755  0.019755      2.000000
  0.019755 -0.019755  0.059264      2.000000
  0.039509  0.039509  0.019755      2.000000
  0.019755  0.039509  0.039509      2.000000
  0.039509  0.019755  0.039509      2.000000
 -0.039509  0.039509  0.019755      2.000000
 -0.039509  0.019755  0.039509      2.000000
 -0.019755  0.039509  0.039509      2.000000
 -0.039509 -0.039509  0.019755      2.000000
 -0.019755 -0.039509  0.039509      2.000000
 -0.039509 -0.019755  0.039509      2.000000
  0.039509 -0.039509  0.019755      2.000000
  0.039509 -0.019755  0.039509      2.000000
  0.019755 -0.039509  0.039509      2.000000
  0.059264  0.039509  0.019755      2.000000
  0.019755  0.059264  0.039509      2.000000
  0.039509  0.019755  0.059264      2.000000
 -0.039509  0.059264  0.019755      2.000000
 -0.059264  0.019755  0.039509      2.000000
 -0.019755  0.039509  0.059264      2.000000
 -0.059264 -0.039509  0.019755      2.000000
 -0.019755 -0.059264  0.039509      2.000000
 -0.039509 -0.019755  0.059264      2.000000
  0.039509 -0.059264  0.019755      2.000000
  0.059264 -0.019755  0.039509      2.000000
  0.019755 -0.039509  0.059264      2.000000
  0.019755 -0.059264 -0.039509      2.000000
  0.039509 -0.019755 -0.059264      2.000000
  0.059264 -0.039509 -0.019755      2.000000
  0.019755  0.039509 -0.059264      2.000000
  0.039509  0.059264 -0.019755      2.000000
  0.059264  0.019755 -0.039509      2.000000
 -0.039509  0.019755 -0.059264      2.000000
 -0.059264  0.039509 -0.019755      2.000000
 -0.019755  0.059264 -0.039509      2.000000
 -0.059264 -0.019755 -0.039509      2.000000
 -0.039509 -0.059264 -0.019755      2.000000
 -0.019755 -0.039509 -0.059264      2.000000
  0.059264  0.059264  0.019755      2.000000
  0.019755  0.059264  0.059264      2.000000
  0.059264  0.019755  0.059264      2.000000
 -0.059264  0.059264  0.019755      2.000000
 -0.059264  0.019755  0.059264      2.000000
 -0.019755  0.059264  0.059264      2.000000
 -0.059264 -0.059264  0.019755      2.000000
 -0.019755 -0.059264  0.059264      2.000000
 -0.059264 -0.019755  0.059264      2.000000
  0.059264 -0.059264  0.019755      2.000000
  0.059264 -0.019755  0.059264      2.000000
  0.019755 -0.059264  0.059264      2.000000
  0.039509  0.039509  0.039509      2.000000
 -0.039509  0.039509  0.039509      2.000000
 -0.039509 -0.039509  0.039509      2.000000
  0.039509 -0.039509  0.039509      2.000000
  0.059264  0.039509  0.039509      2.000000
  0.039509  0.059264  0.039509      2.000000
  0.039509  0.039509  0.059264      2.000000
 -0.039509  0.059264  0.039509      2.000000
 -0.059264  0.039509  0.039509      2.000000
 -0.039509  0.039509  0.059264      2.000000
 -0.059264 -0.039509  0.039509      2.000000
 -0.039509 -0.059264  0.039509      2.000000
 -0.039509 -0.039509  0.059264      2.000000
  0.039509 -0.059264  0.039509      2.000000
  0.059264 -0.039509  0.039509      2.000000
  0.039509 -0.039509  0.059264      2.000000
  0.059264  0.059264  0.039509      2.000000
  0.039509  0.059264  0.059264      2.000000
  0.059264  0.039509  0.059264      2.000000
 -0.059264  0.059264  0.039509      2.000000
 -0.059264  0.039509  0.059264      2.000000
 -0.039509  0.059264  0.059264      2.000000
 -0.059264 -0.059264  0.039509      2.000000
 -0.039509 -0.059264  0.059264      2.000000
 -0.059264 -0.039509  0.059264      2.000000
  0.059264 -0.059264  0.039509      2.000000
  0.059264 -0.039509  0.059264      2.000000
  0.039509 -0.059264  0.059264      2.000000
  0.059264  0.059264  0.059264      2.000000
 -0.059264  0.059264  0.059264      2.000000
 -0.059264 -0.059264  0.059264      2.000000
  0.059264 -0.059264  0.059264      2.000000
 


--------------------------------------------------------------------------------------------------------




 Dimension of arrays:
   k-points           NKPTS =    172   k-points in BZ     NKDIM =    172   number of bands    NBANDS=     82
   number of dos      NEDOS =    301   number of ions     NIONS =     16
   non local maximal  LDIM  =      6   non local SUM 2l+1 LMDIM =     18
   total plane-waves  NPLWV = 125000
   max r-space proj   IRMAX =      1   max aug-charges    IRDMAX=  16231
   dimension x,y,z NGX =    50 NGY =   50 NGZ =   50
   dimension x,y,z NGXF=   100 NGYF=  100 NGZF=  100
   support grid    NGXF=   100 NGYF=  100 NGZF=  100
   ions per type =              12   4
   NGX,Y,Z   is equivalent  to a cutoff of  11.49, 11.49, 11.49 a.u.
   NGXF,Y,Z  is equivalent  to a cutoff of  22.99, 22.99, 22.99 a.u.

 SYSTEM =  unknown system                          
 POSCAR =  Na Pd                                   

 Startparameter for this run:
   NWRITE =      2    write-flag & timer
   PREC   = accura    normal or accurate (medium, high low for compatibility)
   ISTART =      0    job   : 0-new  1-cont  2-samecut
   ICHARG =      2    charge: 1-file 2-atom 10-const
   ISPIN  =      2    spin polarized calculation?
   LNONCOLLINEAR =      F non collinear calculations
   LSORBIT =      F    spin-orbit coupling
   INIWAV =      1    electr: 0-lowe 1-rand  2-diag
   LASPH  =      T    aspherical Exc in radial PAW
 Electronic Relaxation 1
   ENCUT  =  450.0 eV  33.07 Ry    5.75 a.u.  12.51 12.51 12.51*2*pi/ulx,y,z
   ENINI  =  450.0     initial cutoff
   ENAUG  =  416.2 eV  augmentation charge cutoff
   NELM   =    120;   NELMIN=  2; NELMDL= -5     # of ELM steps 
   EDIFF  = 0.1E-04   stopping-criterion for ELM
   LREAL  =      F    real-space projection
   NLSPLINE    = F    spline interpolate recip. space projectors
   LCOMPAT=      F    compatible to vasp.4.4
   GGA_COMPAT  = T    GGA compatible to vasp.4.4-vasp.4.6
   LMAXPAW     = -100 max onsite density
   LMAXMIX     =    4 max onsite mixed and CHGCAR
   VOSKOWN=      0    Vosko Wilk Nusair interpolation
   ROPT   =    0.00000   0.00000
 Ionic relaxation
   EDIFFG = -.3E-01   stopping-criterion for IOM
   NSW    =    200    number of steps for IOM
   NBLOCK =      1;   KBLOCK =    200    inner block; outer block 
   IBRION =      2    ionic relax: 0-MD 1-quasi-New 2-CG
   NFREE  =      1    steps in history (QN), initial steepest desc. (CG)
   ISIF   =      2    stress and relaxation
   IWAVPR =     11    prediction:  0-non 1-charg 2-wave 3-comb
   ISYM   =      0    0-nonsym 1-usesym 2-fastsym
   LCORR  =      T    Harris-Foulkes like correction to forces

   POTIM  = 0.5000    time-step for ionic-motion
   TEIN   =    0.0    initial temperature
   TEBEG  =    0.0;   TEEND  =   0.0 temperature during run
   SMASS  =  -3.00    Nose mass-parameter (am)
   estimated Nose-frequenzy (Omega)   =  0.10E-29 period in steps = 0.13E+47 mass=  -0.120E-26a.u.
   SCALEE = 1.0000    scale energy and forces
   NPACO  =    256;   APACO  = 16.0  distance and # of slots for P.C.
   PSTRESS=    0.0 pullay stress

  Mass of Ions in am
   POMASS =  22.99106.42
  Ionic Valenz
   ZVAL   =   7.00 10.00
  Atomic Wigner-Seitz radii
   RWIGS  =  -1.00 -1.00
  virtual crystal weights 
   VCA    =   1.00  1.00
   NELECT =     124.0000    total number of electrons
   NUPDOWN=      -1.0000    fix difference up-down

 DOS related values:
   EMIN   =  10.00;   EMAX   =-10.00  energy-range for DOS
   EFERMI =   0.00
   ISMEAR =     0;   SIGMA  =   0.05  broadening in eV -4-tet -1-fermi 0-gaus

 Electronic relaxation 2 (details)
   IALGO  =     68    algorithm
   LDIAG  =      T    sub-space diagonalisation (order eigenvalues)
   LSUBROT=      F    optimize rotation matrix (better conditioning)
   TURBO    =      0    0=normal 1=particle mesh
   IRESTART =      0    0=no restart 2=restart with 2 vectors
   NREBOOT  =      0    no. of reboots
   NMIN     =      0    reboot dimension
   EREF     =   0.00    reference energy to select bands
   IMIX   =      4    mixing-type and parameters
     AMIX     =   0.40;   BMIX     =  1.00
     AMIX_MAG =   1.60;   BMIX_MAG =  1.00
     AMIN     =   0.10
     WC   =   100.;   INIMIX=   1;  MIXPRE=   1;  MAXMIX= -45

 Intra band minimization:
   WEIMIN = 0.0010     energy-eigenvalue tresh-hold
   EBREAK =  0.30E-07  absolut break condition
   DEPER  =   0.30     relativ break condition  

   TIME   =   0.40     timestep for ELM

  volume/ion in A,a.u.               =      23.64       159.51
  Fermi-wavevector in a.u.,A,eV,Ry     =   1.128883  2.133279 17.338944  1.274376
  Thomas-Fermi vector in A             =   2.265574
 
 Write flags
   LWAVE        =      F    write WAVECAR
   LDOWNSAMPLE  =      F    k-point downsampling of WAVECAR
   LCHARG       =      F    write CHGCAR
   LVTOT        =      F    write LOCPOT, total local potential
   LVHAR        =      F    write LOCPOT, Hartree potential only
   LELF         =      F    write electronic localiz. function (ELF)
   LORBIT       =     11    0 simple, 1 ext, 2 COOP (PROOUT), +10 PAW based schemes


 Dipole corrections
   LMONO  =      F    monopole corrections only (constant potential shift)
   LDIPOL =      F    correct potential (dipole corrections)
   IDIPOL =      0    1-x, 2-y, 3-z, 4-all directions 
   EPSILON=  1.0000000 bulk dielectric constant

 Exchange correlation treatment:
   GGA     =    RP    GGA type
   LEXCH   =     9    internal setting for exchange type
   VOSKOWN=      0    Vosko Wilk Nusair interpolation
   LHFCALC =     F    Hartree Fock is set to
   LHFONE  =     F    Hartree Fock one center treatment
   AEXX    =    0.0000 exact exchange contribution

 Linear response parameters
   LEPSILON=     F    determine dielectric tensor
   LRPA    =     F    only Hartree local field effects (RPA)
   LNABLA  =     F    use nabla operator in PAW spheres
   LVEL    =     F    velocity operator in full k-point grid
   LINTERFAST=   F  fast interpolation
   KINTER  =     0    interpolate to denser k-point grid
   CSHIFT  =0.1000    complex shift for real part using Kramers Kronig
   OMEGAMAX=  -1.0    maximum frequency
   DEG_THRESHOLD= 0.2000000E-02 threshold for treating states as degnerate
   RTIME   =   -0.100 relaxation time in fs
  (WPLASMAI=    0.000 imaginary part of plasma frequency in eV, 0.658/RTIME)
   DFIELD  = 0.0000000 0.0000000 0.0000000 field for delta impulse in time
 
 Orbital magnetization related:
   ORBITALMAG=     F  switch on orbital magnetization
   LCHIMAG   =     F  perturbation theory with respect to B field
   DQ        =  0.001000  dq finite difference perturbation B field
   LLRAUG    =     F  two centre corrections for induced B field



--------------------------------------------------------------------------------------------------------


 conjugate gradient relaxation of ions
 charge density and potential will be updated during run
 spin polarized calculation
 RMM-DIIS sequential band-by-band and
  variant of blocked Davidson during initial phase
 perform sub-space diagonalisation
    before iterative eigenvector-optimisation
 modified Broyden-mixing scheme, WC =      100.0
 initial mixing is a Kerker type mixing with AMIX =  0.4000 and BMIX =      1.0000
 Hartree-type preconditioning will be used
 using additional bands           20
 reciprocal scheme for non local part
 use partial core corrections
 calculate Harris-corrections to forces 
   (improved forces if not selfconsistent)
 use gradient corrections 
 use of overlap-Matrix (Vanderbilt PP)
 Gauss-broadening in eV      SIGMA  =   0.05


--------------------------------------------------------------------------------------------------------


  energy-cutoff  :      450.00
  volume of cell :      378.18
      direct lattice vectors                 reciprocal lattice vectors
     7.231580000  0.000000000  0.000000000     0.138282367 -0.000000000  0.000000000
     0.000000000  7.231580000  0.000000000     0.000000000  0.138282367  0.000000000
     0.000000000  0.000000000  7.231580000    -0.000000000 -0.000000000  0.138282367

  length of vectors
     7.231580000  7.231580000  7.231580000     0.138282367  0.138282367  0.138282367


 
 k-points in units of 2pi/SCALE and weight: KPOINTS created by Atomic Simulation Env
   0.00000000  0.00000000  0.00000000       0.003
   0.01975462 -0.00000000  0.00000000       0.006
   0.00000000  0.01975462  0.00000000       0.006
  -0.00000000 -0.00000000  0.01975462       0.006
   0.03950925 -0.00000000  0.00000000       0.006
   0.00000000  0.03950925  0.00000000       0.006
  -0.00000000 -0.00000000  0.03950925       0.006
   0.05926387 -0.00000000  0.00000000       0.006
   0.00000000  0.05926387  0.00000000       0.006
  -0.00000000 -0.00000000  0.05926387       0.006
   0.01975462  0.01975462  0.00000000       0.006
  -0.00000000  0.01975462  0.01975462       0.006
   0.01975462 -0.00000000  0.01975462       0.006
  -0.01975462  0.01975462  0.00000000       0.006
  -0.01975462  0.00000000  0.01975462       0.006
  -0.00000000 -0.01975462  0.01975462       0.006
   0.03950925  0.01975462  0.00000000       0.006
  -0.00000000  0.03950925  0.01975462       0.006
   0.01975462 -0.00000000  0.03950925       0.006
  -0.01975462  0.03950925  0.00000000       0.006
  -0.03950925  0.00000000  0.01975462       0.006
  -0.00000000  0.01975462  0.03950925       0.006
  -0.00000000 -0.03950925  0.01975462       0.006
  -0.01975462  0.00000000  0.03950925       0.006
   0.03950925 -0.00000000  0.01975462       0.006
  -0.00000000 -0.01975462  0.03950925       0.006
   0.03950925 -0.01975462  0.00000000       0.006
   0.01975462  0.03950925  0.00000000       0.006
   0.05926387  0.01975462  0.00000000       0.006
  -0.00000000  0.05926387  0.01975462       0.006
   0.01975462 -0.00000000  0.05926387       0.006
  -0.01975462  0.05926387  0.00000000       0.006
  -0.05926387  0.00000000  0.01975462       0.006
  -0.00000000  0.01975462  0.05926387       0.006
  -0.00000000 -0.05926387  0.01975462       0.006
  -0.01975462  0.00000000  0.05926387       0.006
   0.05926387 -0.00000000  0.01975462       0.006
  -0.00000000 -0.01975462  0.05926387       0.006
   0.05926387 -0.01975462  0.00000000       0.006
   0.01975462  0.05926387  0.00000000       0.006
   0.03950925  0.03950925  0.00000000       0.006
  -0.00000000  0.03950925  0.03950925       0.006
   0.03950925 -0.00000000  0.03950925       0.006
  -0.03950925  0.03950925  0.00000000       0.006
  -0.03950925  0.00000000  0.03950925       0.006
  -0.00000000 -0.03950925  0.03950925       0.006
   0.05926387  0.03950925  0.00000000       0.006
  -0.00000000  0.05926387  0.03950925       0.006
   0.03950925 -0.00000000  0.05926387       0.006
  -0.03950925  0.05926387  0.00000000       0.006
  -0.05926387  0.00000000  0.03950925       0.006
  -0.00000000  0.03950925  0.05926387       0.006
  -0.00000000 -0.05926387  0.03950925       0.006
  -0.03950925  0.00000000  0.05926387       0.006
   0.05926387 -0.00000000  0.03950925       0.006
  -0.00000000 -0.03950925  0.05926387       0.006
   0.05926387 -0.03950925  0.00000000       0.006
   0.03950925  0.05926387  0.00000000       0.006
   0.05926387  0.05926387  0.00000000       0.006
  -0.00000000  0.05926387  0.05926387       0.006
   0.05926387 -0.00000000  0.05926387       0.006
  -0.05926387  0.05926387  0.00000000       0.006
  -0.05926387  0.00000000  0.05926387       0.006
  -0.00000000 -0.05926387  0.05926387       0.006
   0.01975462  0.01975462  0.01975462       0.006
  -0.01975462  0.01975462  0.01975462       0.006
  -0.01975462 -0.01975462  0.01975462       0.006
   0.01975462 -0.01975462  0.01975462       0.006
   0.03950925  0.01975462  0.01975462       0.006
   0.01975462  0.03950925  0.01975462       0.006
   0.01975462  0.01975462  0.03950925       0.006
  -0.01975462  0.03950925  0.01975462       0.006
  -0.03950925  0.01975462  0.01975462       0.006
  -0.01975462  0.01975462  0.03950925       0.006
  -0.03950925 -0.01975462  0.01975462       0.006
  -0.01975462 -0.03950925  0.01975462       0.006
  -0.01975462 -0.01975462  0.03950925       0.006
   0.01975462 -0.03950925  0.01975462       0.006
   0.03950925 -0.01975462  0.01975462       0.006
   0.01975462 -0.01975462  0.03950925       0.006
   0.05926387  0.01975462  0.01975462       0.006
   0.01975462  0.05926387  0.01975462       0.006
   0.01975462  0.01975462  0.05926387       0.006
  -0.01975462  0.05926387  0.01975462       0.006
  -0.05926387  0.01975462  0.01975462       0.006
  -0.01975462  0.01975462  0.05926387       0.006
  -0.05926387 -0.01975462  0.01975462       0.006
  -0.01975462 -0.05926387  0.01975462       0.006
  -0.01975462 -0.01975462  0.05926387       0.006
   0.01975462 -0.05926387  0.01975462       0.006
   0.05926387 -0.01975462  0.01975462       0.006
   0.01975462 -0.01975462  0.05926387       0.006
   0.03950925  0.03950925  0.01975462       0.006
   0.01975462  0.03950925  0.03950925       0.006
   0.03950925  0.01975462  0.03950925       0.006
  -0.03950925  0.03950925  0.01975462       0.006
  -0.03950925  0.01975462  0.03950925       0.006
  -0.01975462  0.03950925  0.03950925       0.006
  -0.03950925 -0.03950925  0.01975462       0.006
  -0.01975462 -0.03950925  0.03950925       0.006
  -0.03950925 -0.01975462  0.03950925       0.006
   0.03950925 -0.03950925  0.01975462       0.006
   0.03950925 -0.01975462  0.03950925       0.006
   0.01975462 -0.03950925  0.03950925       0.006
   0.05926387  0.03950925  0.01975462       0.006
   0.01975462  0.05926387  0.03950925       0.006
   0.03950925  0.01975462  0.05926387       0.006
  -0.03950925  0.05926387  0.01975462       0.006
  -0.05926387  0.01975462  0.03950925       0.006
  -0.01975462  0.03950925  0.05926387       0.006
  -0.05926387 -0.03950925  0.01975462       0.006
  -0.01975462 -0.05926387  0.03950925       0.006
  -0.03950925 -0.01975462  0.05926387       0.006
   0.03950925 -0.05926387  0.01975462       0.006
   0.05926387 -0.01975462  0.03950925       0.006
   0.01975462 -0.03950925  0.05926387       0.006
   0.01975462 -0.05926387 -0.03950925       0.006
   0.03950925 -0.01975462 -0.05926387       0.006
   0.05926387 -0.03950925 -0.01975462       0.006
   0.01975462  0.03950925 -0.05926387       0.006
   0.03950925  0.05926387 -0.01975462       0.006
   0.05926387  0.01975462 -0.03950925       0.006
  -0.03950925  0.01975462 -0.05926387       0.006
  -0.05926387  0.03950925 -0.01975462       0.006
  -0.01975462  0.05926387 -0.03950925       0.006
  -0.05926387 -0.01975462 -0.03950925       0.006
  -0.03950925 -0.05926387 -0.01975462       0.006
  -0.01975462 -0.03950925 -0.05926387       0.006
   0.05926387  0.05926387  0.01975462       0.006
   0.01975462  0.05926387  0.05926387       0.006
   0.05926387  0.01975462  0.05926387       0.006
  -0.05926387  0.05926387  0.01975462       0.006
  -0.05926387  0.01975462  0.05926387       0.006
  -0.01975462  0.05926387  0.05926387       0.006
  -0.05926387 -0.05926387  0.01975462       0.006
  -0.01975462 -0.05926387  0.05926387       0.006
  -0.05926387 -0.01975462  0.05926387       0.006
   0.05926387 -0.05926387  0.01975462       0.006
   0.05926387 -0.01975462  0.05926387       0.006
   0.01975462 -0.05926387  0.05926387       0.006
   0.03950925  0.03950925  0.03950925       0.006
  -0.03950925  0.03950925  0.03950925       0.006
  -0.03950925 -0.03950925  0.03950925       0.006
   0.03950925 -0.03950925  0.03950925       0.006
   0.05926387  0.03950925  0.03950925       0.006
   0.03950925  0.05926387  0.03950925       0.006
   0.03950925  0.03950925  0.05926387       0.006
  -0.03950925  0.05926387  0.03950925       0.006
  -0.05926387  0.03950925  0.03950925       0.006
  -0.03950925  0.03950925  0.05926387       0.006
  -0.05926387 -0.03950925  0.03950925       0.006
  -0.03950925 -0.05926387  0.03950925       0.006
  -0.03950925 -0.03950925  0.05926387       0.006
   0.03950925 -0.05926387  0.03950925       0.006
   0.05926387 -0.03950925  0.03950925       0.006
   0.03950925 -0.03950925  0.05926387       0.006
   0.05926387  0.05926387  0.03950925       0.006
   0.03950925  0.05926387  0.05926387       0.006
   0.05926387  0.03950925  0.05926387       0.006
  -0.05926387  0.05926387  0.03950925       0.006
  -0.05926387  0.03950925  0.05926387       0.006
  -0.03950925  0.05926387  0.05926387       0.006
  -0.05926387 -0.05926387  0.03950925       0.006
  -0.03950925 -0.05926387  0.05926387       0.006
  -0.05926387 -0.03950925  0.05926387       0.006
   0.05926387 -0.05926387  0.03950925       0.006
   0.05926387 -0.03950925  0.05926387       0.006
   0.03950925 -0.05926387  0.05926387       0.006
   0.05926387  0.05926387  0.05926387       0.006
  -0.05926387  0.05926387  0.05926387       0.006
  -0.05926387 -0.05926387  0.05926387       0.006
   0.05926387 -0.05926387  0.05926387       0.006
 
 k-points in reciprocal lattice and weights: KPOINTS created by Atomic Simulation Env
   0.00000000  0.00000000  0.00000000       0.003
   0.14285714 -0.00000000  0.00000000       0.006
   0.00000000  0.14285714  0.00000000       0.006
  -0.00000000 -0.00000000  0.14285714       0.006
   0.28571429 -0.00000000  0.00000000       0.006
   0.00000000  0.28571429  0.00000000       0.006
  -0.00000000 -0.00000000  0.28571429       0.006
   0.42857143 -0.00000000  0.00000000       0.006
   0.00000000  0.42857143  0.00000000       0.006
  -0.00000000 -0.00000000  0.42857143       0.006
   0.14285714  0.14285714  0.00000000       0.006
  -0.00000000  0.14285714  0.14285714       0.006
   0.14285714  0.00000000  0.14285714       0.006
  -0.14285714  0.14285714  0.00000000       0.006
  -0.14285714  0.00000000  0.14285714       0.006
  -0.00000000 -0.14285714  0.14285714       0.006
   0.28571429  0.14285714  0.00000000       0.006
  -0.00000000  0.28571429  0.14285714       0.006
   0.14285714 -0.00000000  0.28571429       0.006
  -0.14285714  0.28571429  0.00000000       0.006
  -0.28571429  0.00000000  0.14285714       0.006
  -0.00000000  0.14285714  0.28571429       0.006
  -0.00000000 -0.28571429  0.14285714       0.006
  -0.14285714 -0.00000000  0.28571429       0.006
   0.28571429 -0.00000000  0.14285714       0.006
  -0.00000000 -0.14285714  0.28571429       0.006
   0.28571429 -0.14285714  0.00000000       0.006
   0.14285714  0.28571429  0.00000000       0.006
   0.42857143  0.14285714  0.00000000       0.006
  -0.00000000  0.42857143  0.14285714       0.006
   0.14285714 -0.00000000  0.42857143       0.006
  -0.14285714  0.42857143  0.00000000       0.006
  -0.42857143 -0.00000000  0.14285714       0.006
  -0.00000000  0.14285714  0.42857143       0.006
  -0.00000000 -0.42857143  0.14285714       0.006
  -0.14285714 -0.00000000  0.42857143       0.006
   0.42857143 -0.00000000  0.14285714       0.006
  -0.00000000 -0.14285714  0.42857143       0.006
   0.42857143 -0.14285714  0.00000000       0.006
   0.14285714  0.42857143  0.00000000       0.006
   0.28571429  0.28571429  0.00000000       0.006
  -0.00000000  0.28571429  0.28571429       0.006
   0.28571429 -0.00000000  0.28571429       0.006
  -0.28571429  0.28571429  0.00000000       0.006
  -0.28571429  0.00000000  0.28571429       0.006
  -0.00000000 -0.28571429  0.28571429       0.006
   0.42857143  0.28571429  0.00000000       0.006
  -0.00000000  0.42857143  0.28571429       0.006
   0.28571429 -0.00000000  0.42857143       0.006
  -0.28571429  0.42857143  0.00000000       0.006
  -0.42857143  0.00000000  0.28571429       0.006
  -0.00000000  0.28571429  0.42857143       0.006
  -0.00000000 -0.42857143  0.28571429       0.006
  -0.28571429  0.00000000  0.42857143       0.006
   0.42857143 -0.00000000  0.28571429       0.006
  -0.00000000 -0.28571429  0.42857143       0.006
   0.42857143 -0.28571429  0.00000000       0.006
   0.28571429  0.42857143  0.00000000       0.006
   0.42857143  0.42857143  0.00000000       0.006
  -0.00000000  0.42857143  0.42857143       0.006
   0.42857143 -0.00000000  0.42857143       0.006
  -0.42857143  0.42857143  0.00000000       0.006
  -0.42857143  0.00000000  0.42857143       0.006
  -0.00000000 -0.42857143  0.42857143       0.006
   0.14285714  0.14285714  0.14285714       0.006
  -0.14285714  0.14285714  0.14285714       0.006
  -0.14285714 -0.14285714  0.14285714       0.006
   0.14285714 -0.14285714  0.14285714       0.006
   0.28571429  0.14285714  0.14285714       0.006
   0.14285714  0.28571429  0.14285714       0.006
   0.14285714  0.14285714  0.28571429       0.006
  -0.14285714  0.28571429  0.14285714       0.006
  -0.28571429  0.14285714  0.14285714       0.006
  -0.14285714  0.14285714  0.28571429       0.006
  -0.28571429 -0.14285714  0.14285714       0.006
  -0.14285714 -0.28571429  0.14285714       0.006
  -0.14285714 -0.14285714  0.28571429       0.006
   0.14285714 -0.28571429  0.14285714       0.006
   0.28571429 -0.14285714  0.14285714       0.006
   0.14285714 -0.14285714  0.28571429       0.006
   0.42857143  0.14285714  0.14285714       0.006
   0.14285714  0.42857143  0.14285714       0.006
   0.14285714  0.14285714  0.42857143       0.006
  -0.14285714  0.42857143  0.14285714       0.006
  -0.42857143  0.14285714  0.14285714       0.006
  -0.14285714  0.14285714  0.42857143       0.006
  -0.42857143 -0.14285714  0.14285714       0.006
  -0.14285714 -0.42857143  0.14285714       0.006
  -0.14285714 -0.14285714  0.42857143       0.006
   0.14285714 -0.42857143  0.14285714       0.006
   0.42857143 -0.14285714  0.14285714       0.006
   0.14285714 -0.14285714  0.42857143       0.006
   0.28571429  0.28571429  0.14285714       0.006
   0.14285714  0.28571429  0.28571429       0.006
   0.28571429  0.14285714  0.28571429       0.006
  -0.28571429  0.28571429  0.14285714       0.006
  -0.28571429  0.14285714  0.28571429       0.006
  -0.14285714  0.28571429  0.28571429       0.006
  -0.28571429 -0.28571429  0.14285714       0.006
  -0.14285714 -0.28571429  0.28571429       0.006
  -0.28571429 -0.14285714  0.28571429       0.006
   0.28571429 -0.28571429  0.14285714       0.006
   0.28571429 -0.14285714  0.28571429       0.006
   0.14285714 -0.28571429  0.28571429       0.006
   0.42857143  0.28571429  0.14285714       0.006
   0.14285714  0.42857143  0.28571429       0.006
   0.28571429  0.14285714  0.42857143       0.006
  -0.28571429  0.42857143  0.14285714       0.006
  -0.42857143  0.14285714  0.28571429       0.006
  -0.14285714  0.28571429  0.42857143       0.006
  -0.42857143 -0.28571429  0.14285714       0.006
  -0.14285714 -0.42857143  0.28571429       0.006
  -0.28571429 -0.14285714  0.42857143       0.006
   0.28571429 -0.42857143  0.14285714       0.006
   0.42857143 -0.14285714  0.28571429       0.006
   0.14285714 -0.28571429  0.42857143       0.006
   0.14285714 -0.42857143 -0.28571429       0.006
   0.28571429 -0.14285714 -0.42857143       0.006
   0.42857143 -0.28571429 -0.14285714       0.006
   0.14285714  0.28571429 -0.42857143       0.006
   0.28571429  0.42857143 -0.14285714       0.006
   0.42857143  0.14285714 -0.28571429       0.006
  -0.28571429  0.14285714 -0.42857143       0.006
  -0.42857143  0.28571429 -0.14285714       0.006
  -0.14285714  0.42857143 -0.28571429       0.006
  -0.42857143 -0.14285714 -0.28571429       0.006
  -0.28571429 -0.42857143 -0.14285714       0.006
  -0.14285714 -0.28571429 -0.42857143       0.006
   0.42857143  0.42857143  0.14285714       0.006
   0.14285714  0.42857143  0.42857143       0.006
   0.42857143  0.14285714  0.42857143       0.006
  -0.42857143  0.42857143  0.14285714       0.006
  -0.42857143  0.14285714  0.42857143       0.006
  -0.14285714  0.42857143  0.42857143       0.006
  -0.42857143 -0.42857143  0.14285714       0.006
  -0.14285714 -0.42857143  0.42857143       0.006
  -0.42857143 -0.14285714  0.42857143       0.006
   0.42857143 -0.42857143  0.14285714       0.006
   0.42857143 -0.14285714  0.42857143       0.006
   0.14285714 -0.42857143  0.42857143       0.006
   0.28571429  0.28571429  0.28571429       0.006
  -0.28571429  0.28571429  0.28571429       0.006
  -0.28571429 -0.28571429  0.28571429       0.006
   0.28571429 -0.28571429  0.28571429       0.006
   0.42857143  0.28571429  0.28571429       0.006
   0.28571429  0.42857143  0.28571429       0.006
   0.28571429  0.28571429  0.42857143       0.006
  -0.28571429  0.42857143  0.28571429       0.006
  -0.42857143  0.28571429  0.28571429       0.006
  -0.28571429  0.28571429  0.42857143       0.006
  -0.42857143 -0.28571429  0.28571429       0.006
  -0.28571429 -0.42857143  0.28571429       0.006
  -0.28571429 -0.28571429  0.42857143       0.006
   0.28571429 -0.42857143  0.28571429       0.006
   0.42857143 -0.28571429  0.28571429       0.006
   0.28571429 -0.28571429  0.42857143       0.006
   0.42857143  0.42857143  0.28571429       0.006
   0.28571429  0.42857143  0.42857143       0.006
   0.42857143  0.28571429  0.42857143       0.006
  -0.42857143  0.42857143  0.28571429       0.006
  -0.42857143  0.28571429  0.42857143       0.006
  -0.28571429  0.42857143  0.42857143       0.006
  -0.42857143 -0.42857143  0.28571429       0.006
  -0.28571429 -0.42857143  0.42857143       0.006
  -0.42857143 -0.28571429  0.42857143       0.006
   0.42857143 -0.42857143  0.28571429       0.006
   0.42857143 -0.28571429  0.42857143       0.006
   0.28571429 -0.42857143  0.42857143       0.006
   0.42857143  0.42857143  0.42857143       0.006
  -0.42857143  0.42857143  0.42857143       0.006
  -0.42857143 -0.42857143  0.42857143       0.006
   0.42857143 -0.42857143  0.42857143       0.006
 
 position of ions in fractional coordinates (direct lattice) 
   0.25000000  0.75000000  0.75000000
   0.25000000  0.25000000  0.75000000
   0.50000000  0.00000000  0.00000000
   0.25000000  0.25000000  0.25000000
   0.25000000  0.75000000  0.25000000
   0.50000000  0.50000000  0.50000000
   0.75000000  0.75000000  0.25000000
   0.75000000  0.25000000  0.25000000
   0.00000000  0.00000000  0.50000000
   0.75000000  0.25000000  0.75000000
   0.75000000  0.75000000  0.75000000
   0.00000000  0.50000000  0.00000000
   0.00000000  0.00000000  0.00000000
   0.00000000  0.50000000  0.50000000
   0.50000000  0.00000000  0.50000000
   0.50000000  0.50000000  0.00000000
 
 position of ions in cartesian coordinates  (Angst):
   1.80789500  5.42368500  5.42368500
   1.80789500  1.80789500  5.42368500
   3.61579000  0.00000000  0.00000000
   1.80789500  1.80789500  1.80789500
   1.80789500  5.42368500  1.80789500
   3.61579000  3.61579000  3.61579000
   5.42368500  5.42368500  1.80789500
   5.42368500  1.80789500  1.80789500
   0.00000000  0.00000000  3.61579000
   5.42368500  1.80789500  5.42368500
   5.42368500  5.42368500  5.42368500
   0.00000000  3.61579000  0.00000000
   0.00000000  0.00000000  0.00000000
   0.00000000  3.61579000  3.61579000
   3.61579000  0.00000000  3.61579000
   3.61579000  3.61579000  0.00000000
 


--------------------------------------------------------------------------------------------------------


 k-point   1 :   0.0000 0.0000 0.0000  plane waves:    8217
 k-point   2 :   0.1429-0.0000 0.0000  plane waves:    8241
 k-point   3 :   0.0000 0.1429 0.0000  plane waves:    8241
 k-point   4 :  -0.0000-0.0000 0.1429  plane waves:    8241
 k-point   5 :   0.2857-0.0000 0.0000  plane waves:    8209
 k-point   6 :   0.0000 0.2857 0.0000  plane waves:    8209
 k-point   7 :  -0.0000-0.0000 0.2857  plane waves:    8209
 k-point   8 :   0.4286-0.0000 0.0000  plane waves:    8177
 k-point   9 :   0.0000 0.4286 0.0000  plane waves:    8177
 k-point  10 :  -0.0000-0.0000 0.4286  plane waves:    8177
 k-point  11 :   0.1429 0.1429 0.0000  plane waves:    8197
 k-point  12 :  -0.0000 0.1429 0.1429  plane waves:    8197
 k-point  13 :   0.1429 0.0000 0.1429  plane waves:    8197
 k-point  14 :  -0.1429 0.1429 0.0000  plane waves:    8197
 k-point  15 :  -0.1429 0.0000 0.1429  plane waves:    8197
 k-point  16 :  -0.0000-0.1429 0.1429  plane waves:    8197
 k-point  17 :   0.2857 0.1429 0.0000  plane waves:    8203
 k-point  18 :  -0.0000 0.2857 0.1429  plane waves:    8203
 k-point  19 :   0.1429-0.0000 0.2857  plane waves:    8203
 k-point  20 :  -0.1429 0.2857 0.0000  plane waves:    8203
 k-point  21 :  -0.2857 0.0000 0.1429  plane waves:    8203
 k-point  22 :  -0.0000 0.1429 0.2857  plane waves:    8203
 k-point  23 :  -0.0000-0.2857 0.1429  plane waves:    8203
 k-point  24 :  -0.1429-0.0000 0.2857  plane waves:    8203
 k-point  25 :   0.2857-0.0000 0.1429  plane waves:    8203
 k-point  26 :  -0.0000-0.1429 0.2857  plane waves:    8203
 k-point  27 :   0.2857-0.1429 0.0000  plane waves:    8203
 k-point  28 :   0.1429 0.2857 0.0000  plane waves:    8203
 k-point  29 :   0.4286 0.1429 0.0000  plane waves:    8197
 k-point  30 :  -0.0000 0.4286 0.1429  plane waves:    8197
 k-point  31 :   0.1429-0.0000 0.4286  plane waves:    8197
 k-point  32 :  -0.1429 0.4286 0.0000  plane waves:    8197
 k-point  33 :  -0.4286-0.0000 0.1429  plane waves:    8197
 k-point  34 :  -0.0000 0.1429 0.4286  plane waves:    8197
 k-point  35 :  -0.0000-0.4286 0.1429  plane waves:    8197
 k-point  36 :  -0.1429-0.0000 0.4286  plane waves:    8197
 k-point  37 :   0.4286-0.0000 0.1429  plane waves:    8197
 k-point  38 :  -0.0000-0.1429 0.4286  plane waves:    8197
 k-point  39 :   0.4286-0.1429 0.0000  plane waves:    8197
 k-point  40 :   0.1429 0.4286 0.0000  plane waves:    8197
 k-point  41 :   0.2857 0.2857 0.0000  plane waves:    8224
 k-point  42 :  -0.0000 0.2857 0.2857  plane waves:    8224
 k-point  43 :   0.2857-0.0000 0.2857  plane waves:    8224
 k-point  44 :  -0.2857 0.2857 0.0000  plane waves:    8224
 k-point  45 :  -0.2857 0.0000 0.2857  plane waves:    8224
 k-point  46 :  -0.0000-0.2857 0.2857  plane waves:    8224
 k-point  47 :   0.4286 0.2857 0.0000  plane waves:    8199
 k-point  48 :  -0.0000 0.4286 0.2857  plane waves:    8199
 k-point  49 :   0.2857-0.0000 0.4286  plane waves:    8199
 k-point  50 :  -0.2857 0.4286 0.0000  plane waves:    8199
 k-point  51 :  -0.4286 0.0000 0.2857  plane waves:    8199
 k-point  52 :  -0.0000 0.2857 0.4286  plane waves:    8199
 k-point  53 :  -0.0000-0.4286 0.2857  plane waves:    8199
 k-point  54 :  -0.2857 0.0000 0.4286  plane waves:    8199
 k-point  55 :   0.4286-0.0000 0.2857  plane waves:    8199
 k-point  56 :  -0.0000-0.2857 0.4286  plane waves:    8199
 k-point  57 :   0.4286-0.2857 0.0000  plane waves:    8199
 k-point  58 :   0.2857 0.4286 0.0000  plane waves:    8199
 k-point  59 :   0.4286 0.4286 0.0000  plane waves:    8194
 k-point  60 :  -0.0000 0.4286 0.4286  plane waves:    8194
 k-point  61 :   0.4286-0.0000 0.4286  plane waves:    8194
 k-point  62 :  -0.4286 0.4286 0.0000  plane waves:    8194
 k-point  63 :  -0.4286 0.0000 0.4286  plane waves:    8194
 k-point  64 :  -0.0000-0.4286 0.4286  plane waves:    8194
 k-point  65 :   0.1429 0.1429 0.1429  plane waves:    8226
 k-point  66 :  -0.1429 0.1429 0.1429  plane waves:    8226
 k-point  67 :  -0.1429-0.1429 0.1429  plane waves:    8226
 k-point  68 :   0.1429-0.1429 0.1429  plane waves:    8226
 k-point  69 :   0.2857 0.1429 0.1429  plane waves:    8211
 k-point  70 :   0.1429 0.2857 0.1429  plane waves:    8211
 k-point  71 :   0.1429 0.1429 0.2857  plane waves:    8211
 k-point  72 :  -0.1429 0.2857 0.1429  plane waves:    8211
 k-point  73 :  -0.2857 0.1429 0.1429  plane waves:    8211
 k-point  74 :  -0.1429 0.1429 0.2857  plane waves:    8211
 k-point  75 :  -0.2857-0.1429 0.1429  plane waves:    8211
 k-point  76 :  -0.1429-0.2857 0.1429  plane waves:    8211
 k-point  77 :  -0.1429-0.1429 0.2857  plane waves:    8211
 k-point  78 :   0.1429-0.2857 0.1429  plane waves:    8211
 k-point  79 :   0.2857-0.1429 0.1429  plane waves:    8211
 k-point  80 :   0.1429-0.1429 0.2857  plane waves:    8211
 k-point  81 :   0.4286 0.1429 0.1429  plane waves:    8195
 k-point  82 :   0.1429 0.4286 0.1429  plane waves:    8195
 k-point  83 :   0.1429 0.1429 0.4286  plane waves:    8195
 k-point  84 :  -0.1429 0.4286 0.1429  plane waves:    8195
 k-point  85 :  -0.4286 0.1429 0.1429  plane waves:    8195
 k-point  86 :  -0.1429 0.1429 0.4286  plane waves:    8195
 k-point  87 :  -0.4286-0.1429 0.1429  plane waves:    8195
 k-point  88 :  -0.1429-0.4286 0.1429  plane waves:    8195
 k-point  89 :  -0.1429-0.1429 0.4286  plane waves:    8195
 k-point  90 :   0.1429-0.4286 0.1429  plane waves:    8195
 k-point  91 :   0.4286-0.1429 0.1429  plane waves:    8195
 k-point  92 :   0.1429-0.1429 0.4286  plane waves:    8195
 k-point  93 :   0.2857 0.2857 0.1429  plane waves:    8212
 k-point  94 :   0.1429 0.2857 0.2857  plane waves:    8212
 k-point  95 :   0.2857 0.1429 0.2857  plane waves:    8212
 k-point  96 :  -0.2857 0.2857 0.1429  plane waves:    8212
 k-point  97 :  -0.2857 0.1429 0.2857  plane waves:    8212
 k-point  98 :  -0.1429 0.2857 0.2857  plane waves:    8212
 k-point  99 :  -0.2857-0.2857 0.1429  plane waves:    8212
 k-point 100 :  -0.1429-0.2857 0.2857  plane waves:    8212
 k-point 101 :  -0.2857-0.1429 0.2857  plane waves:    8212
 k-point 102 :   0.2857-0.2857 0.1429  plane waves:    8212
 k-point 103 :   0.2857-0.1429 0.2857  plane waves:    8212
 k-point 104 :   0.1429-0.2857 0.2857  plane waves:    8212
 k-point 105 :   0.4286 0.2857 0.1429  plane waves:    8191
 k-point 106 :   0.1429 0.4286 0.2857  plane waves:    8191
 k-point 107 :   0.2857 0.1429 0.4286  plane waves:    8191
 k-point 108 :  -0.2857 0.4286 0.1429  plane waves:    8191
 k-point 109 :  -0.4286 0.1429 0.2857  plane waves:    8191
 k-point 110 :  -0.1429 0.2857 0.4286  plane waves:    8191
 k-point 111 :  -0.4286-0.2857 0.1429  plane waves:    8191
 k-point 112 :  -0.1429-0.4286 0.2857  plane waves:    8191
 k-point 113 :  -0.2857-0.1429 0.4286  plane waves:    8191
 k-point 114 :   0.2857-0.4286 0.1429  plane waves:    8191
 k-point 115 :   0.4286-0.1429 0.2857  plane waves:    8191
 k-point 116 :   0.1429-0.2857 0.4286  plane waves:    8191
 k-point 117 :   0.1429-0.4286-0.2857  plane waves:    8191
 k-point 118 :   0.2857-0.1429-0.4286  plane waves:    8191
 k-point 119 :   0.4286-0.2857-0.1429  plane waves:    8191
 k-point 120 :   0.1429 0.2857-0.4286  plane waves:    8191
 k-point 121 :   0.2857 0.4286-0.1429  plane waves:    8191
 k-point 122 :   0.4286 0.1429-0.2857  plane waves:    8191
 k-point 123 :  -0.2857 0.1429-0.4286  plane waves:    8191
 k-point 124 :  -0.4286 0.2857-0.1429  plane waves:    8191
 k-point 125 :  -0.1429 0.4286-0.2857  plane waves:    8191
 k-point 126 :  -0.4286-0.1429-0.2857  plane waves:    8191
 k-point 127 :  -0.2857-0.4286-0.1429  plane waves:    8191
 k-point 128 :  -0.1429-0.2857-0.4286  plane waves:    8191
 k-point 129 :   0.4286 0.4286 0.1429  plane waves:    8190
 k-point 130 :   0.1429 0.4286 0.4286  plane waves:    8190
 k-point 131 :   0.4286 0.1429 0.4286  plane waves:    8190
 k-point 132 :  -0.4286 0.4286 0.1429  plane waves:    8190
 k-point 133 :  -0.4286 0.1429 0.4286  plane waves:    8190
 k-point 134 :  -0.1429 0.4286 0.4286  plane waves:    8190
 k-point 135 :  -0.4286-0.4286 0.1429  plane waves:    8190
 k-point 136 :  -0.1429-0.4286 0.4286  plane waves:    8190
 k-point 137 :  -0.4286-0.1429 0.4286  plane waves:    8190
 k-point 138 :   0.4286-0.4286 0.1429  plane waves:    8190
 k-point 139 :   0.4286-0.1429 0.4286  plane waves:    8190
 k-point 140 :   0.1429-0.4286 0.4286  plane waves:    8190
 k-point 141 :   0.2857 0.2857 0.2857  plane waves:    8198
 k-point 142 :  -0.2857 0.2857 0.2857  plane waves:    8198
 k-point 143 :  -0.2857-0.2857 0.2857  plane waves:    8198
 k-point 144 :   0.2857-0.2857 0.2857  plane waves:    8198
 k-point 145 :   0.4286 0.2857 0.2857  plane waves:    8179
 k-point 146 :   0.2857 0.4286 0.2857  plane waves:    8179
 k-point 147 :   0.2857 0.2857 0.4286  plane waves:    8179
 k-point 148 :  -0.2857 0.4286 0.2857  plane waves:    8179
 k-point 149 :  -0.4286 0.2857 0.2857  plane waves:    8179
 k-point 150 :  -0.2857 0.2857 0.4286  plane waves:    8179
 k-point 151 :  -0.4286-0.2857 0.2857  plane waves:    8179
 k-point 152 :  -0.2857-0.4286 0.2857  plane waves:    8179
 k-point 153 :  -0.2857-0.2857 0.4286  plane waves:    8179
 k-point 154 :   0.2857-0.4286 0.2857  plane waves:    8179
 k-point 155 :   0.4286-0.2857 0.2857  plane waves:    8179
 k-point 156 :   0.2857-0.2857 0.4286  plane waves:    8179
 k-point 157 :   0.4286 0.4286 0.2857  plane waves:    8190
 k-point 158 :   0.2857 0.4286 0.4286  plane waves:    8190
 k-point 159 :   0.4286 0.2857 0.4286  plane waves:    8190
 k-point 160 :  -0.4286 0.4286 0.2857  plane waves:    8190
 k-point 161 :  -0.4286 0.2857 0.4286  plane waves:    8190
 k-point 162 :  -0.2857 0.4286 0.4286  plane waves:    8190
 k-point 163 :  -0.4286-0.4286 0.2857  plane waves:    8190
 k-point 164 :  -0.2857-0.4286 0.4286  plane waves:    8190
 k-point 165 :  -0.4286-0.2857 0.4286  plane waves:    8190
 k-point 166 :   0.4286-0.4286 0.2857  plane waves:    8190
 k-point 167 :   0.4286-0.2857 0.4286  plane waves:    8190
 k-point 168 :   0.2857-0.4286 0.4286  plane waves:    8190
 k-point 169 :   0.4286 0.4286 0.4286  plane waves:    8189
 k-point 170 :  -0.4286 0.4286 0.4286  plane waves:    8189
 k-point 171 :  -0.4286-0.4286 0.4286  plane waves:    8189
 k-point 172 :   0.4286-0.4286 0.4286  plane waves:    8189

 maximum and minimum number of plane-waves per node :      2075     2008

 maximum number of plane-waves:      8241
 maximum index in each direction: 
   IXMAX=   12   IYMAX=   12   IZMAX=   12
   IXMIN=  -12   IYMIN=  -12   IZMIN=  -12


 parallel 3D FFT for wavefunctions:
    minimum data exchange during FFTs selected (reduces bandwidth)
 parallel 3D FFT for charge:
    minimum data exchange during FFTs selected (reduces bandwidth)


 total amount of memory used by VASP MPI-rank0   629466. kBytes
=======================================================================

   base      :      30000. kBytes
   nonl-proj :     103268. kBytes
   fftplans  :       5381. kBytes
   grid      :      13188. kBytes
   one-center:        124. kBytes
   wavefun   :     477505. kBytes
 
     INWAV:  cpu time    0.0001: real time    0.0001
 Broyden mixing: mesh for mixing (old mesh)
   NGX = 25   NGY = 25   NGZ = 25
  (NGX  =100   NGY  =100   NGZ  =100)
  gives a total of  15625 points

 initial charge density was supplied:
 charge density of overlapping atoms calculated
 number of electron     124.0000000 magnetization      16.0000000
 keeping initial charge density in first step


--------------------------------------------------------------------------------------------------------


 Maximum index for augmentation-charges         2292 (set IRDMAX)


--------------------------------------------------------------------------------------------------------


 First call to EWALD:  gamma=   0.245
 Maximum number of real-space cells 3x 3x 3
 Maximum number of reciprocal cells 3x 3x 3

    FEWALD:  cpu time    0.0101: real time    0.0101


--------------------------------------- Iteration      1(   1)  ---------------------------------------


    POTLOK:  cpu time    0.4235: real time    0.8097
    SETDIJ:  cpu time    1.7568: real time    1.7570
     EDDAV:  cpu time   17.1350: real time   17.1524
       DOS:  cpu time    0.0188: real time    0.0193
    --------------------------------------------
      LOOP:  cpu time   19.3343: real time   19.7385

 eigenvalue-minimisations  : 56700
 total energy-change (2. order) : 0.1247000E+04  (-0.5700187E+04)
 number of electron     124.0000000 magnetization      16.0000000
 augmentation part      124.0000000 magnetization      16.0000000

 Free energy of the ion-electron system (eV)
  ---------------------------------------------------
  alpha Z        PSCENC =       256.86125899
  Ewald energy   TEWEN  =     -7063.07188753
  -Hartree energ DENC   =     -3479.35601172
  -exchange      EXHF   =         0.00000000
  -V(xc)+E(xc)   XCENC  =       168.56920471
  PAW double counting   =      9263.20670365   -10062.67469017
  entropy T*S    EENTRO =        -0.00348959
  eigenvalues    EBANDS =      -258.14935913
  atomic energy  EATOM  =     12421.61867991
  Solvation  Ediel_sol  =         0.00000000
  ---------------------------------------------------
  free energy    TOTEN  =      1247.00040912 eV

  energy without entropy =     1247.00389871  energy(sigma->0) =     1247.00215392


--------------------------------------------------------------------------------------------------------




--------------------------------------- Iteration      1(   2)  ---------------------------------------


     EDDAV:  cpu time   16.9749: real time   16.9810
       DOS:  cpu time    0.0183: real time    0.0183
    --------------------------------------------
      LOOP:  cpu time   16.9931: real time   16.9993

 eigenvalue-minimisations  : 56432
 total energy-change (2. order) :-0.1160957E+04  (-0.1120676E+04)
 number of electron     124.0000000 magnetization      16.0000000
 augmentation part      124.0000000 magnetization      16.0000000

 Free energy of the ion-electron system (eV)
  ---------------------------------------------------
  alpha Z        PSCENC =       256.86125899
  Ewald energy   TEWEN  =     -7063.07188753
  -Hartree energ DENC   =     -3479.35601172
  -exchange      EXHF   =         0.00000000
  -V(xc)+E(xc)   XCENC  =       168.56920471
  PAW double counting   =      9263.20670365   -10062.67469017
  entropy T*S    EENTRO =        -0.00559532
  eigenvalues    EBANDS =     -1419.10399826
  atomic energy  EATOM  =     12421.61867991
  Solvation  Ediel_sol  =         0.00000000
  ---------------------------------------------------
  free energy    TOTEN  =        86.04366426 eV

  energy without entropy =       86.04925958  energy(sigma->0) =       86.04646192


--------------------------------------------------------------------------------------------------------




--------------------------------------- Iteration      1(   3)  ---------------------------------------


     EDDAV:  cpu time   17.8740: real time   17.8951
       DOS:  cpu time    0.0176: real time    0.0176
    --------------------------------------------
      LOOP:  cpu time   17.8916: real time   17.9127

 eigenvalue-minimisations  : 59696
 total energy-change (2. order) :-0.1113497E+03  (-0.1057639E+03)
 number of electron     124.0000000 magnetization      16.0000000
 augmentation part      124.0000000 magnetization      16.0000000

 Free energy of the ion-electron system (eV)
  ---------------------------------------------------
  alpha Z        PSCENC =       256.86125899
  Ewald energy   TEWEN  =     -7063.07188753
  -Hartree energ DENC   =     -3479.35601172
  -exchange      EXHF   =         0.00000000
  -V(xc)+E(xc)   XCENC  =       168.56920471
  PAW double counting   =      9263.20670365   -10062.67469017
  entropy T*S    EENTRO =        -0.00343176
  eigenvalues    EBANDS =     -1530.45587526
  atomic energy  EATOM  =     12421.61867991
  Solvation  Ediel_sol  =         0.00000000
  ---------------------------------------------------
  free energy    TOTEN  =       -25.30604918 eV

  energy without entropy =      -25.30261742  energy(sigma->0) =      -25.30433330


--------------------------------------------------------------------------------------------------------




--------------------------------------- Iteration      1(   4)  ---------------------------------------


     EDDAV:  cpu time   18.5561: real time   18.5580
       DOS:  cpu time    0.0176: real time    0.0176
    --------------------------------------------
      LOOP:  cpu time   18.5737: real time   18.5756

 eigenvalue-minimisations  : 63610
 total energy-change (2. order) :-0.4138102E+01  (-0.4074035E+01)
 number of electron     124.0000000 magnetization      16.0000000
 augmentation part      124.0000000 magnetization      16.0000000

 Free energy of the ion-electron system (eV)
  ---------------------------------------------------
  alpha Z        PSCENC =       256.86125899
  Ewald energy   TEWEN  =     -7063.07188753
  -Hartree energ DENC   =     -3479.35601172
  -exchange      EXHF   =         0.00000000
  -V(xc)+E(xc)   XCENC  =       168.56920471
  PAW double counting   =      9263.20670365   -10062.67469017
  entropy T*S    EENTRO =        -0.00321369
  eigenvalues    EBANDS =     -1534.59419483
  atomic energy  EATOM  =     12421.61867991
  Solvation  Ediel_sol  =         0.00000000
  ---------------------------------------------------
  free energy    TOTEN  =       -29.44415068 eV

  energy without entropy =      -29.44093699  energy(sigma->0) =      -29.44254384


--------------------------------------------------------------------------------------------------------




--------------------------------------- Iteration      1(   5)  ---------------------------------------


     EDDAV:  cpu time   21.0386: real time   21.0417
       DOS:  cpu time    0.0176: real time    0.0176
    CHARGE:  cpu time    1.1572: real time    1.1582
    MIXING:  cpu time    0.0284: real time    0.0285
    --------------------------------------------
      LOOP:  cpu time   22.2419: real time   22.2461

 eigenvalue-minimisations  : 74680
 total energy-change (2. order) :-0.1074171E+00  (-0.1073190E+00)
 number of electron     123.9999731 magnetization       5.8144455
 augmentation part       71.3792145 magnetization       5.0632405

 Broyden mixing:
  rms(total) = 0.27109E+01    rms(broyden)= 0.27108E+01
  rms(prec ) = 0.28500E+01
  weight for this iteration     100.00

 Free energy of the ion-electron system (eV)
  ---------------------------------------------------
  alpha Z        PSCENC =       256.86125899
  Ewald energy   TEWEN  =     -7063.07188753
  -Hartree energ DENC   =     -3479.35601172
  -exchange      EXHF   =         0.00000000
  -V(xc)+E(xc)   XCENC  =       168.56920471
  PAW double counting   =      9263.20670365   -10062.67469017
  entropy T*S    EENTRO =        -0.00321933
  eigenvalues    EBANDS =     -1534.70160630
  atomic energy  EATOM  =     12421.61867991
  Solvation  Ediel_sol  =         0.00000000
  ---------------------------------------------------
  free energy    TOTEN  =       -29.55156779 eV

  energy without entropy =      -29.54834846  energy(sigma->0) =      -29.54995813


--------------------------------------------------------------------------------------------------------




--------------------------------------- Iteration      1(   6)  ---------------------------------------


    POTLOK:  cpu time    0.4701: real time    0.4718
    SETDIJ:  cpu time    2.0984: real time    2.0985
    EDDIAG:  cpu time    3.3612: real time    3.3616
  RMM-DIIS:  cpu time   13.3291: real time   13.3304
    ORTHCH:  cpu time    0.2387: real time    0.2387
       DOS:  cpu time    0.0238: real time    0.0238
    CHARGE:  cpu time    1.1176: real time    1.1177
    MIXING:  cpu time    0.0151: real time    0.0151
    --------------------------------------------
      LOOP:  cpu time   20.6541: real time   20.6577

 eigenvalue-minimisations  : 57477
 total energy-change (2. order) :-0.2114234E+01  (-0.7664230E+00)
 number of electron     123.9999731 magnetization       4.0468339
 augmentation part       70.4748333 magnetization       1.2781026

 Broyden mixing:
  rms(total) = 0.11422E+01    rms(broyden)= 0.11422E+01
  rms(prec ) = 0.12203E+01
  weight for this iteration     100.00

 eigenvalues of (default mixing * dielectric matrix)
  average eigenvalue GAMMA=   0.7225
  0.7225

 Free energy of the ion-electron system (eV)
  ---------------------------------------------------
  alpha Z        PSCENC =       256.86125899
  Ewald energy   TEWEN  =     -7063.07188753
  -Hartree energ DENC   =     -3496.27051753
  -exchange      EXHF   =         0.00000000
  -V(xc)+E(xc)   XCENC  =       169.57865716
  PAW double counting   =      9470.20223597   -10270.86237251
  entropy T*S    EENTRO =        -0.00442591
  eigenvalues    EBANDS =     -1519.71743066
  atomic energy  EATOM  =     12421.61867991
  Solvation  Ediel_sol  =         0.00000000
  ---------------------------------------------------
  free energy    TOTEN  =       -31.66580211 eV

  energy without entropy =      -31.66137620  energy(sigma->0) =      -31.66358915


--------------------------------------------------------------------------------------------------------




--------------------------------------- Iteration      1(   7)  ---------------------------------------


[...]
  339          m_sumb_d                              0.000190                          1   4
  340        strelo                                0.010222                            1   3
  341          m_sumb_d                              0.000299                          2   4
  342        strenl                                8.880511                            1   3
  343          spher                                 2.113735                         19   4
  344          phase                                 0.083321                         99   4
  345          proj1                                 6.508679                       8118   4
  346            crexp_mul_wave                        1.922194                   129888   5
  347            m_sumb_d                              0.640168                     8118   5
  348          m_sumb_d                              0.007966                          1   4
  349        m_sumb_d                              0.000221                            6   3
  350        fft3d_mpi                             0.121614                           22   3
  351          fftbas_plan_mpi                       0.113185                         22   4
  352            dfftw_execute                         0.054353                       66   5
  353            map_forward                           0.024117                       20   5
  354              map_gather                            0.010739                     10   6
  355              m_alltoallv_z                         0.004699                     10   6
  356              map_scatter                           0.008170                     10   6
  357            map_backward                          0.029534                       24   5
  358              map_gather                            0.009719                     12   6
  359              m_alltoallv_z                         0.005288                     12   6
  360              map_scatter                           0.013962                     12   6
  361        forhar                                0.082322                            2   3
  362          m_sumb_d                              0.000600                          2   4
  363        strehar                               0.007825                            1   3
  364          m_sumb_d                              0.000170                          1   4
  365        chggra                                0.022279                            1   3
  366          fft3d_mpi                             0.016282                          3   4
  367            fftbas_plan_mpi                       0.015180                        3   5
  368              dfftw_execute                         0.007384                      9   6
  369              map_backward                          0.002260                      2   6
  370                map_gather                            0.000703                    1   7
  371                m_alltoallv_z                         0.000446                    1   7
  372                map_scatter                           0.001056                    1   7
  373              map_forward                           0.004804                      4   6
  374                map_gather                            0.002098                    2   7
  375                m_alltoallv_z                         0.000932                    2   7
  376                map_scatter                           0.001632                    2   7
  377          m_sumb_d                              0.000054                          2   4
  378          pothar                                0.001372                          1   4
  379            m_sumb_d                              0.000097                        1   5
  380        brmix                                 0.018029                            1   3
  381          m_sumb_d                              0.002276                          6   4
  382          brpre                                 0.000094                          2   4
  383          setg0                                 0.004148                          1   4
  384          broyd                                 0.004841                          1   4
  385            m_sumb_d                              0.000555                       19   5
  386            brget                                 0.001032                       69   5
  387            brsav                                 0.000619                       17   5
  388          m_bcast_z                             0.001133                          1   4
  389          m_bcast_d                             0.000236                          1   4
  390        m_bcast_d                             0.000846                            2   3
  391      potlok                                0.399909                              1   2
  392        fft3d_mpi                             0.136663                           26   3
  393          fftbas_plan_mpi                       0.126940                         26   4
  394            dfftw_execute                         0.060430                       78   5
  395            map_forward                           0.030501                       28   5
  396              map_gather                            0.012702                     16   6
  397              m_alltoallv_z                         0.006209                     16   6
  398              map_scatter                           0.010808                     16   6
  399            map_backward                          0.029886                       24   5
  400              map_gather                            0.010182                     12   6
  401              m_alltoallv_z                         0.005200                     12   6
  402              map_scatter                           0.013868                     12   6
  403        m_sumb_d                              0.000190                            5   3
  404        pothar                                0.001397                            1   3
  405          m_sumb_d                              0.000048                          1   4
  406        m_bcast_d                             0.000296                            2   3
  407      potlok_metagga                        0.000003                              1   2
  408      set_dd_magatom                        0.000003                              1   2
  409      set_dd_paw                            2.087859                              1   2
  410        set_rsgf_all                          0.000004                            1   3
  411        m_sumb_d                              2.087666                            8   3
  412      densta                                0.038617                              1   2
  413        m_sumb_d                              0.014575                           40   3
 
 Flat profile
 ============
 
             routine name                   CPU           calls
 ---------------------------------------------------------------
 dfftw_execute                          69.696522      345471
 total_time                             60.755163           1
 m_sumb_d                               49.628464      328321
 fftbas_plan_mpi                        22.863276      115159
 proj1                                  20.696587       41098
 gemm                                   17.930690      585408
 m_alltoallv_z                          15.053471      115211
 sphpro_fast                            15.049418           2
 eddav                                  10.872468           5
 crexp_mul_wave                         10.098485      657568
 vnlac0                                 10.047469       36588
 fftwav_mpi                              9.902668       67303
 vhamil                                  9.657136       47412
 work_mul_crexp                          9.130143      585408
 map_forward                             9.049935      135024
 eccp                                    8.390909       48251
 pdssyex_zheevx                          8.224817         374
 map_scatter                             8.102125      115211
 map_gather                              6.860205      115211
 m_bcast_z                               5.230813       57564
 orth1                                   4.623864       13500
 m_alltoall_d                            4.577074      229549
 w1_daxpy                                4.482456       44186
 w1_dscal                                4.374582       55900
 w1_copy                                 3.974799      109764
 potlok                                  3.762121          14
 i2                                      3.532231        5766
 spher                                   2.377694          20
 fftext_mpi                              2.165272       47412
 lincom                                  1.985965         660
 redis_pw                                1.976561       41615
 hamiltmu                                1.974495        9716
 fornl                                   1.799283           1
 map_backward                            1.793622       95290
 i3                                      1.671719        5766
 fft3d_mpi                               1.650611      115157
 pw_charge                               1.518229        9067
 zhegv                                   1.407541       11269
 w1_gaxpy                                1.404951       30367
 elmin                                   1.329763           1
 cnorma                                  1.304402       32917
 w1_gemv                                 1.286884       50474
 redis_proj                              1.267206       50830
 kinhamil                                1.214610       47412
 newband                                 1.108293       10090
 apply_precond                           0.887498       51176
 overl1                                  0.837023       61825
 eddiag                                  0.744350          12
 setup_precond                           0.660954       15334
 setdij_                                 0.610703          41
 eccp_nl                                 0.520980       32917
 phase                                   0.412874         496
 eddrmm                                  0.395581          12
 w1_dot                                  0.387568       10824
 overl                                   0.368832       25030
 w1_projall                              0.343377        8506
 hamilt_local                            0.280566       10824
 force_and_stress                        0.268560           1
 soft_charge                             0.267529          13
 i1                                      0.251561        5766
 augmentation_charge                     0.242413          13
 m_bcast_d                               0.220737        7948
 densta                                  0.195230          18
 truncate_high_frequency_w1              0.179477       51922
 choleski                                0.169004         286
 strenl                                  0.166810           1
 forhar                                  0.081722           2
 brmix                                   0.070153          13
 setg0                                   0.055574          15
 orthch                                  0.047196          13
 forloc                                  0.041567           1
 depsum                                  0.037656          13
 stufak                                  0.029970           1
 pothar                                  0.020269          15
 broyd                                   0.016831          13
 set_charge                              0.012926          13
 strkin                                  0.010613           1
 proj                                    0.010004          11
 strelo                                  0.009923           1
 strehar                                 0.007655           1
 brget                                   0.007513         501
 brsav                                   0.006518         145
 set_dd_paw                              0.006302          15
 fewald                                  0.004688           1
 chggra                                  0.004571           1
 fft_gq                                  0.001770          13
 brgrid                                  0.001531           1
 brpre                                   0.001296          26
 shift_bands_between_low_high            0.000956         264
 rsp                                     0.000829           1
 fordep                                  0.000215           1
 crpa_reader                             0.000165           1
 vectorpot                               0.000106          14
 rcp                                     0.000074           1
 set_rsgf_all                            0.000071          15
 potlok_metagga                          0.000061          14
 set_dd_magatom                          0.000057          15
 FERMAT_RAZOR                            0.000022           1
 rotate_active_occupied_orbital          0.000011           1
 redis_pw_over_bands                     0.000003           1
 ---------------------------------------------------------------
  summed up times    444.705435037613     
 
 Accumulative profile
 ====================
 
             routine name                   CPU           calls
 ---------------------------------------------------------------
 total_time                            444.705435           1
 elmin                                 344.319165           1
 eddrmm                                161.594605          12
 fft3d_mpi                             135.026068      115157
 fftbas_plan_mpi                       133.419155      115159
 hamiltmu                               92.167736        9716
 eddav                                  91.504621           5
 fftwav_mpi                             90.919611       67303
 dfftw_execute                          69.696522      345471
 kinhamil                               55.101515       47412
 fftext_mpi                             53.886905       47412
 m_sumb_d                               49.628464      328321
 i2                                     43.883983        5766
 eddiag                                 40.582393          12
 vnlac0                                 39.979292       36588
 proj1                                  34.040117       41098
 set_dd_paw                             31.042882          15
 newband                                27.345339       10090
 w1_projall                             27.150881        8506
 map_forward                            26.302474      135024
 i3                                     21.958310        5766
 gemm                                   17.930690      585408
 hamilt_local                           15.333343       10824
 sphpro_fast                            15.238670           2
 m_alltoallv_z                          15.053471      115211
 force_and_stress                       15.045967           1
 set_charge                             14.594683          13
 map_backward                           14.556884       95290
 soft_charge                            14.144431          13
 eccp                                   10.809596       48251
 crexp_mul_wave                         10.098485      657568
 vhamil                                  9.657136       47412
 work_mul_crexp                          9.130143      585408
 strenl                                  8.880511           1
 pdssyex_zheevx                          8.224839         374
 map_scatter                             8.102125      115211
 map_gather                              6.860205      115211
 potlok                                  5.742787          14
 redis_pw                                5.238786       41615
 m_bcast_z                               5.230813       57564
 orth1                                   4.623864       13500
 m_alltoall_d                            4.577074      229549
 w1_daxpy                                4.482456       44186
 w1_dscal                                4.374582       55900
 w1_copy                                 3.974799      109764
 cnorma                                  3.414768       32917
 orthch                                  3.170506          13
 w1_gemv                                 3.031737       50474
 redis_proj                              2.582056       50830
 spher                                   2.377694          20
 lincom                                  1.985965         660
 fornl                                   1.977699           1
 pw_charge                               1.518229        9067
 zhegv                                   1.407565       11269
 w1_gaxpy                                1.404951       30367
 setup_precond                           1.146220       15334
 apply_precond                           0.887498       51176
 overl1                                  0.837023       61825
 w1_dot                                  0.736291       10824
 proj                                    0.733938          11
 setdij_                                 0.626075          41
 i1                                      0.606896        5766
 eccp_nl                                 0.520980       32917
 phase                                   0.412874         496
 augmentation_charge                     0.393826          13
 overl                                   0.368832       25030
 densta                                  0.264617          18
 brmix                                   0.223456          13
 m_bcast_d                               0.220737        7948
 truncate_high_frequency_w1              0.179477       51922
 choleski                                0.169004         286
 fordep                                  0.091553           1
 forhar                                  0.082322           2
 setg0                                   0.055574          15
 depsum                                  0.043500          13
 forloc                                  0.041618           1
 fft_gq                                  0.037755          13
 broyd                                   0.037490          13
 stufak                                  0.029970           1
 chggra                                  0.022279           1
 pothar                                  0.021175          15
 strkin                                  0.010803           1
 strelo                                  0.010222           1
 fewald                                  0.010014           1
 strehar                                 0.007825           1
 brget                                   0.007513         501
 brsav                                   0.006518         145
 brgrid                                  0.001531           1
 brpre                                   0.001296          26
 shift_bands_between_low_high            0.000956         264
 rsp                                     0.000829           1
 crpa_reader                             0.000165           1
 vectorpot                               0.000106          14
 rcp                                     0.000074           1
 set_rsgf_all                            0.000071          15
 potlok_metagga                          0.000061          14
 set_dd_magatom                          0.000057          15
 FERMAT_RAZOR                            0.000022           1
 rotate_active_occupied_orbital          0.000011           1
 redis_pw_over_bands                     0.000003           1
 ---------------------------------------------------------------
 
Profiling took  11.343337 14.389719  0.006789  0.005081 seconds
Profiling took  12.297827 seconds
