
                                 *****************
                                 * O   R   C   A *
                                 *****************

                                            #,                                       
                                            ###                                      
                                            ####                                     
                                            #####                                    
                                            ######                                   
                                           ########,                                 
                                     ,,################,,,,,                         
                               ,,#################################,,                 
                          ,,##########################################,,             
                       ,#########################################, ''#####,          
                    ,#############################################,,   '####,        
                  ,##################################################,,,,####,       
                ,###########''''           ''''###############################       
              ,#####''   ,,,,##########,,,,          '''####'''          '####       
            ,##' ,,,,###########################,,,                        '##       
           ' ,,###''''                  '''############,,,                           
         ,,##''                                '''############,,,,        ,,,,,,###''
      ,#''                                            '''#######################'''  
     '                                                          ''''####''''         
             ,#######,   #######,   ,#######,      ##                                
            ,#'     '#,  ##    ##  ,#'     '#,    #''#        ######   ,####,        
            ##       ##  ##   ,#'  ##            #'  '#       #        #'  '#        
            ##       ##  #######   ##           ,######,      #####,   #    #        
            '#,     ,#'  ##    ##  '#,     ,#' ,#      #,         ##   #,  ,#        
             '#######'   ##     ##  '#######'  #'      '#     #####' # '####'        



                  #######################################################
                  #                        -***-                        #
                  #          Department of theory and spectroscopy      #
                  #    Directorship and core code : Frank Neese         #
                  #        Max Planck Institute fuer Kohlenforschung    #
                  #                Kaiser Wilhelm Platz 1               #
                  #                 D-45470 Muelheim/Ruhr               #
                  #                      Germany                        #
                  #                                                     #
                  #                  All rights reserved                #
                  #                        -***-                        #
                  #######################################################


                         Program Version 5.0.4 -  RELEASE  -


 With contributions from (in alphabetic order):
   Daniel Aravena         : Magnetic Suceptibility
   Michael Atanasov       : Ab Initio Ligand Field Theory (pilot matlab implementation)
   Alexander A. Auer      : GIAO ZORA, VPT2 properties, NMR spectrum
   Ute Becker             : Parallelization
   Giovanni Bistoni       : ED, misc. LED, open-shell LED, HFLD
   Martin Brehm           : Molecular dynamics
   Dmytro Bykov           : SCF Hessian
   Vijay G. Chilkuri      : MRCI spin determinant printing, contributions to CSF-ICE
   Dipayan Datta          : RHF DLPNO-CCSD density
   Achintya Kumar Dutta   : EOM-CC, STEOM-CC
   Dmitry Ganyushin       : Spin-Orbit,Spin-Spin,Magnetic field MRCI
   Miquel Garcia          : C-PCM and meta-GGA Hessian, CC/C-PCM, Gaussian charge scheme
   Yang Guo               : DLPNO-NEVPT2, F12-NEVPT2, CIM, IAO-localization
   Andreas Hansen         : Spin unrestricted coupled pair/coupled cluster methods
   Benjamin Helmich-Paris : MC-RPA, TRAH-SCF, COSX integrals
   Lee Huntington         : MR-EOM, pCC
   Robert Izsak           : Overlap fitted RIJCOSX, COSX-SCS-MP3, EOM
   Marcus Kettner         : VPT2
   Christian Kollmar      : KDIIS, OOCD, Brueckner-CCSD(T), CCSD density, CASPT2, CASPT2-K
   Simone Kossmann        : Meta GGA functionals, TD-DFT gradient, OOMP2, MP2 Hessian
   Martin Krupicka        : Initial AUTO-CI
   Lucas Lang             : DCDCAS
   Marvin Lechner         : AUTO-CI (C++ implementation), FIC-MRCC
   Dagmar Lenk            : GEPOL surface, SMD
   Dimitrios Liakos       : Extrapolation schemes; Compound Job, initial MDCI parallelization
   Dimitrios Manganas     : Further ROCIS development; embedding schemes
   Dimitrios Pantazis     : SARC Basis sets
   Anastasios Papadopoulos: AUTO-CI, single reference methods and gradients
   Taras Petrenko         : DFT Hessian,TD-DFT gradient, ASA, ECA, R-Raman, ABS, FL, XAS/XES, NRVS
   Peter Pinski           : DLPNO-MP2, DLPNO-MP2 Gradient
   Christoph Reimann      : Effective Core Potentials
   Marius Retegan         : Local ZFS, SOC
   Christoph Riplinger    : Optimizer, TS searches, QM/MM, DLPNO-CCSD(T), (RO)-DLPNO pert. Triples
   Tobias Risthaus        : Range-separated hybrids, TD-DFT gradient, RPA, STAB
   Michael Roemelt        : Original ROCIS implementation
   Masaaki Saitow         : Open-shell DLPNO-CCSD energy and density
   Barbara Sandhoefer     : DKH picture change effects
   Avijit Sen             : IP-ROCIS
   Kantharuban Sivalingam : CASSCF convergence, NEVPT2, FIC-MRCI
   Bernardo de Souza      : ESD, SOC TD-DFT
   Georgi Stoychev        : AutoAux, RI-MP2 NMR, DLPNO-MP2 response
   Willem Van den Heuvel  : Paramagnetic NMR
   Boris Wezisla          : Elementary symmetry handling
   Frank Wennmohs         : Technical directorship


 We gratefully acknowledge several colleagues who have allowed us to
 interface, adapt or use parts of their codes:
   Stefan Grimme, W. Hujo, H. Kruse, P. Pracht,  : VdW corrections, initial TS optimization,
                  C. Bannwarth, S. Ehlert          DFT functionals, gCP, sTDA/sTD-DF
   Ed Valeev, F. Pavosevic, A. Kumar             : LibInt (2-el integral package), F12 methods
   Garnet Chan, S. Sharma, J. Yang, R. Olivares  : DMRG
   Ulf Ekstrom                                   : XCFun DFT Library
   Mihaly Kallay                                 : mrcc  (arbitrary order and MRCC methods)
   Jiri Pittner, Ondrej Demel                    : Mk-CCSD
   Frank Weinhold                                : gennbo (NPA and NBO analysis)
   Christopher J. Cramer and Donald G. Truhlar   : smd solvation model
   Lars Goerigk                                  : TD-DFT with DH, B97 family of functionals
   V. Asgeirsson, H. Jonsson                     : NEB implementation
   FAccTs GmbH                                   : IRC, NEB, NEB-TS, DLPNO-Multilevel, CI-OPT
                                                   MM, QMMM, 2- and 3-layer-ONIOM, Crystal-QMMM,
                                                   LR-CPCM, SF, NACMEs, symmetry and pop. for TD-DFT,
                                                   nearIR, NL-DFT gradient (VV10), updates on ESD,
                                                   ML-optimized integration grids
   S Lehtola, MJT Oliveira, MAL Marques          : LibXC Library
   Liviu Ungur et al                             : ANISO software


 Your calculation uses the libint2 library for the computation of 2-el integrals
 For citations please refer to: http://libint.valeyev.net

 Your ORCA version has been built with support for libXC version: 5.1.0
 For citations please refer to: https://tddft.org/programs/libxc/

 This ORCA versions uses:
   CBLAS   interface :  Fast vector & matrix operations
   LAPACKE interface :  Fast linear algebra routines
   SCALAPACK package :  Parallel linear algebra routines
   Shared memory     :  Shared parallel matrices
   BLAS/LAPACK       :  OpenBLAS 0.3.15  USE64BITINT DYNAMIC_ARCH NO_AFFINITY Prescott SINGLE_THREADED
        Core in use  :  Prescott
   Copyright (c) 2011-2014, The OpenBLAS Project


Your calculation utilizes the atom-pairwise dispersion correction
with the Becke-Johnson damping scheme (D3BJ)
Cite in your paper:
S.Grimme, S.Ehrlich, L.Goerigk, J Comput Chem, (2011), 32, 1456–1465 
S.Grimme, J.Antony, S.Ehrlich and H.Krieg, J.Chem.Phys., 132, (2010), 154104 
   

================================================================================

----- Orbital basis set information -----
Your calculation utilizes the basis: def2-TZVP
   F. Weigend and R. Ahlrichs, Phys. Chem. Chem. Phys. 7, 3297 (2005).

----- AuxJ basis set information -----
Your calculation utilizes the auxiliary basis: def2/J
   F. Weigend, Phys. Chem. Chem. Phys. 8, 1057 (2006).

================================================================================
                                        WARNINGS
                       Please study these warnings very carefully!
================================================================================


WARNING: Geometry Optimization
  ===> : Switching off AutoStart
         For restart on a previous wavefunction, please use MOREAD

INFO   : the flag for use of the SHARK integral package has been found!

================================================================================
                                       INPUT FILE
================================================================================
NAME = orca.inp
|  1> ! wb97x-d3bj def2-tzvp opt slowconv normalprint xyzfile 
|  2> %geom MaxIter 1 end 
|  3> *xyz 0 1 
|  4> C   0.0 0.0 0.0
|  5> H   0.629118 0.629118 0.629118
|  6> H   -0.629118 -0.629118 0.629118
|  7> H   0.629118 -0.629118 -0.629118
|  8> H   -0.629118 0.629118 -0.629118
|  9> *
| 10> 
| 11>                          ****END OF INPUT****
================================================================================

                       *****************************
                       * Geometry Optimization Run *
                       *****************************

Geometry optimization settings:
Update method            Update   .... BFGS
Choice of coordinates    CoordSys .... Z-matrix Internals
Initial Hessian          InHess   .... Almoef's Model

Convergence Tolerances:
Energy Change            TolE     ....  5.0000e-06 Eh
Max. Gradient            TolMAXG  ....  3.0000e-04 Eh/bohr
RMS Gradient             TolRMSG  ....  1.0000e-04 Eh/bohr
Max. Displacement        TolMAXD  ....  4.0000e-03 bohr
RMS Displacement         TolRMSD  ....  2.0000e-03 bohr
Strict Convergence                ....  False
------------------------------------------------------------------------------
                        ORCA OPTIMIZATION COORDINATE SETUP
------------------------------------------------------------------------------

The optimization will be done in new redundant internal coordinates
Making redundant internal coordinates   ...  (new redundants) done
Evaluating the initial hessian          ...  (Almloef) done
Evaluating the coordinates              ...  done
Calculating the B-matrix                .... done
Calculating the G-matrix                .... done
Diagonalizing the G-matrix              .... done
The first mode is                       ....    1
The number of degrees of freedom        ....    9

    -----------------------------------------------------------------
                    Redundant Internal Coordinates


    -----------------------------------------------------------------
         Definition                    Initial Value    Approx d2E/dq
    -----------------------------------------------------------------
      1. B(H   1,C   0)                  1.0897         0.360544   
      2. B(H   2,C   0)                  1.0897         0.360544   
      3. B(H   3,C   0)                  1.0897         0.360544   
      4. B(H   4,C   0)                  1.0897         0.360544   
      5. A(H   1,C   0,H   3)          109.4712         0.290952   
      6. A(H   2,C   0,H   3)          109.4712         0.290952   
      7. A(H   1,C   0,H   4)          109.4712         0.290952   
      8. A(H   2,C   0,H   4)          109.4712         0.290952   
      9. A(H   3,C   0,H   4)          109.4712         0.290952   
     10. A(H   1,C   0,H   2)          109.4712         0.290952   
    -----------------------------------------------------------------

Number of atoms                         .... 5
Number of degrees of freedom            .... 10

         *************************************************************
         *                GEOMETRY OPTIMIZATION CYCLE   1            *
         *************************************************************
---------------------------------
CARTESIAN COORDINATES (ANGSTROEM)
---------------------------------
  C      0.000000    0.000000    0.000000
  H      0.629118    0.629118    0.629118
  H     -0.629118   -0.629118    0.629118
  H      0.629118   -0.629118   -0.629118
  H     -0.629118    0.629118   -0.629118

----------------------------
CARTESIAN COORDINATES (A.U.)
----------------------------
  NO LB      ZA    FRAG     MASS         X           Y           Z
   0 C     6.0000    0    12.011    0.000000    0.000000    0.000000
   1 H     1.0000    0     1.008    1.188861    1.188861    1.188861
   2 H     1.0000    0     1.008   -1.188861   -1.188861    1.188861
   3 H     1.0000    0     1.008    1.188861   -1.188861   -1.188861
   4 H     1.0000    0     1.008   -1.188861    1.188861   -1.188861

--------------------------------
INTERNAL COORDINATES (ANGSTROEM)
--------------------------------
 C      0   0   0     0.000000000000     0.00000000     0.00000000
 H      1   0   0     1.089664339956     0.00000000     0.00000000
 H      1   2   0     1.089664339956   109.47122063     0.00000000
 H      1   2   3     1.089664339956   109.47122063   240.00000000
 H      1   2   3     1.089664339956   109.47122063   120.00000000

---------------------------
INTERNAL COORDINATES (A.U.)
---------------------------
 C      0   0   0     0.000000000000     0.00000000     0.00000000
 H      1   0   0     2.059167180417     0.00000000     0.00000000
 H      1   2   0     2.059167180417   109.47122063     0.00000000
 H      1   2   3     2.059167180417   109.47122063   240.00000000
 H      1   2   3     2.059167180417   109.47122063   120.00000000

---------------------
BASIS SET INFORMATION
---------------------
There are 2 groups of distinct atoms

 Group   1 Type C   : 11s6p2d1f contracted to 5s3p2d1f pattern {62111/411/11/1}
 Group   2 Type H   : 5s1p contracted to 3s1p pattern {311/1}

Atom   0C    basis set group =>   1
Atom   1H    basis set group =>   2
Atom   2H    basis set group =>   2
Atom   3H    basis set group =>   2
Atom   4H    basis set group =>   2
---------------------------------
AUXILIARY/J BASIS SET INFORMATION
---------------------------------
There are 2 groups of distinct atoms

 Group   1 Type C   : 12s5p4d2f1g contracted to 6s4p3d1f1g pattern {711111/2111/211/2/1}
 Group   2 Type H   : 5s2p1d contracted to 3s1p1d pattern {311/2/1}

Atom   0C    basis set group =>   1
Atom   1H    basis set group =>   2
Atom   2H    basis set group =>   2
Atom   3H    basis set group =>   2
Atom   4H    basis set group =>   2
------------------------------------------------------------------------------
                           ORCA GTO INTEGRAL CALCULATION
                           -- RI-GTO INTEGRALS CHOSEN --
------------------------------------------------------------------------------
------------------------------------------------------------------------------
                   ___                                                        
                  /   \      - P O W E R E D   B Y -                         
                 /     \                                                     
                 |  |  |   _    _      __       _____    __    __             
                 |  |  |  | |  | |    /  \     |  _  \  |  |  /  |          
                  \  \/   | |  | |   /    \    | | | |  |  | /  /          
                 / \  \   | |__| |  /  /\  \   | |_| |  |  |/  /          
                |  |  |   |  __  | /  /__\  \  |    /   |      \           
                |  |  |   | |  | | |   __   |  |    \   |  |\   \          
                \     /   | |  | | |  |  |  |  | |\  \  |  | \   \       
                 \___/    |_|  |_| |__|  |__|  |_| \__\ |__|  \__/        
                                                                              
                      - O R C A' S   B I G   F R I E N D -                    
                                      &                                       
                       - I N T E G R A L  F E E D E R -                       
                                                                              
 v1 FN, 2020, v2 2021                                                         
------------------------------------------------------------------------------


Reading SHARK input file orca.SHARKINP.tmp ... SHARK General Contraction Test:  Segmented basis detected
   -> Pre-screening matrix *NOT* found on disk - recalculating with NShells=27
   -> Leaving CheckPreScreeningMatrix
ok
----------------------
SHARK INTEGRAL PACKAGE
----------------------

Number of atoms                             ...      5
Number of basis functions                   ...     55
Number of shells                            ...     27
Maximum angular momentum                    ...      3
Integral batch strategy                     ... SHARK/LIBINT Hybrid
RI-J (if used) integral strategy            ... SPLIT-RIJ (Revised 2003 algorithm where possible)
Printlevel                                  ...      2
Contraction scheme used                     ... SEGMENTED contraction
Coulomb Range Separation                    ... NOT USED
Exchange Range Separation                   ... Long Range
   Mu parameter                             ...  0.300000
   Scaling (regular/separated)              ...  0.167000  0.833000
Finite Nucleus Model                        ... NOT USED
Auxiliary Coulomb fitting basis             ... AVAILABLE
   # of basis functions in Aux-J            ...     93
   # of shells in Aux-J                     ...     35
   Maximum angular momentum in Aux-J        ...      4
Auxiliary J/K fitting basis                 ... NOT available
Auxiliary Correlation fitting basis         ... NOT available
Auxiliary 'external' fitting basis          ... NOT available
Integral threshold                          ...     2.500000e-11
Primitive cut-off                           ...     2.500000e-12
Primitive pair pre-selection threshold      ...     2.500000e-12

Calculating pre-screening integrals         ... done (  0.0 sec) Dimension = 27
Organizing shell pair data                  ... done (  0.0 sec)
Shell pair information
Total number of shell pairs                 ...       378
Shell pairs after pre-screening             ...       378
Total number of primitive shell pairs       ...      1024
Primitive shell pairs kept                  ...       972
          la=0 lb=0:    153 shell pairs
          la=1 lb=0:    119 shell pairs
          la=1 lb=1:     28 shell pairs
          la=2 lb=0:     34 shell pairs
          la=2 lb=1:     14 shell pairs
          la=2 lb=2:      3 shell pairs
          la=3 lb=0:     17 shell pairs
          la=3 lb=1:      7 shell pairs
          la=3 lb=2:      2 shell pairs
          la=3 lb=3:      1 shell pairs

Calculating one electron integrals          ... done (  0.0 sec)
Calculating RI/J V-Matrix + Cholesky decomp.... done (  0.0 sec)
Calculating Nuclear repulsion               ... done (  0.0 sec) ENN=     13.439527823364 Eh

SHARK setup successfully completed in   0.1 seconds

Maximum memory used throughout the entire GTOINT-calculation: 14.0 MB
-------------------------------------------------------------------------------
                                 ORCA SCF
-------------------------------------------------------------------------------

------------
SCF SETTINGS
------------
Hamiltonian:
 Density Functional     Method          .... DFT(GTOs)
 Exchange Functional    Exchange        .... WB97X-V
 Correlation Functional Correlation     .... WB97X-V
 Gradients option       PostSCFGGA      .... off
 Hybrid DFT is turned on
   Fraction HF Exchange ScalHFX         ....  0.167000
   Scaling of DF-GGA-X  ScalDFX         ....  0.000000
   Scaling of DF-GGA-C  ScalDFC         ....  1.000000
   Scaling of DF-LDA-C  ScalLDAC        ....  1.000000
   Perturbative correction              ....  0.000000
   Density functional embedding theory  .... OFF
 Long-range corrected/Screened/Range-Separated Hybrid DFT is turned on
   Amount of maximum screened exact exchange              ....  0.833000
   Range separation parameter mu (erf(mu*r12)/r12)        ....  0.300000
 RI-approximation to the Coulomb term is turned on
   Number of AuxJ basis functions       .... 93
   RIJ-COSX (HFX calculated with COS-X)).... on


General Settings:
 Integral files         IntName         .... orca
 Hartree-Fock type      HFTyp           .... RHF
 Total Charge           Charge          ....    0
 Multiplicity           Mult            ....    1
 Number of Electrons    NEL             ....   10
 Basis Dimension        Dim             ....   55
 Nuclear Repulsion      ENuc            ....     13.4395278234 Eh

Convergence Acceleration:
 DIIS                   CNVDIIS         .... on
   Start iteration      DIISMaxIt       ....     0
   Startup error        DIISStart       ....  0.200000
   # of expansion vecs  DIISMaxEq       ....     5
   Bias factor          DIISBfac        ....   1.050
   Max. coefficient     DIISMaxC        ....  10.000
 Trust-Rad. Augm. Hess. CNVTRAH         .... auto
   Auto Start mean grad. ratio tolernc. ....  1.125000
   Auto Start start iteration           ....    20
   Auto Start num. interpolation iter.  ....    10
   Max. Number of Micro iterations      ....    16
   Max. Number of Macro iterations      .... Maxiter - #DIIS iter
   Number of Davidson start vectors     ....     2
   Converg. threshold I  (grad. norm)   ....   1.000e-05
   Converg. threshold II (energy diff.) ....   1.000e-08
   Grad. Scal. Fac. for Micro threshold ....   0.100
   Minimum threshold for Micro iter.    ....   0.010
   NR start threshold (gradient norm)   ....   0.001
   Initial trust radius                 ....   0.400
   Minimum AH scaling param. (alpha)    ....   1.000
   Maximum AH scaling param. (alpha)    .... 1000.000
   Orbital update algorithm             .... Taylor
   White noise on init. David. guess    .... on
   Maximum white noise                  ....   0.010
   Quad. conv. algorithm                .... NR
 SOSCF                  CNVSOSCF        .... on
   Start iteration      SOSCFMaxIt      ....   150
   Startup grad/error   SOSCFStart      ....  0.001000
 Level Shifting         CNVShift        .... on
   Level shift para.    LevelShift      ....    0.2500
   Turn off err/grad.   ShiftErr        ....    0.0000
 Zerner damping         CNVZerner       .... off
 Static damping         CNVDamp         .... on
   Fraction old density DampFac         ....    0.8500
   Max. Damping (<1)    DampMax         ....    0.9800
   Min. Damping (>=0)   DampMin         ....    0.0000
   Turn off err/grad.   DampErr         ....    0.0300
 Fernandez-Rico         CNVRico         .... off

SCF Procedure:
 Maximum # iterations   MaxIter         ....   125
 SCF integral mode      SCFMode         .... Direct
   Integral package                     .... SHARK and LIBINT hybrid scheme
 Reset frequency        DirectResetFreq ....    20
 Integral Threshold     Thresh          ....  2.500e-11 Eh
 Primitive CutOff       TCut            ....  2.500e-12 Eh

Convergence Tolerance:
 Convergence Check Mode ConvCheckMode   .... Total+1el-Energy
 Convergence forced     ConvForced      .... 0
 Energy Change          TolE            ....  1.000e-08 Eh
 1-El. energy change                    ....  1.000e-05 Eh
 Orbital Gradient       TolG            ....  1.000e-05
 Orbital Rotation angle TolX            ....  1.000e-05
 DIIS Error             TolErr          ....  5.000e-07


Diagonalization of the overlap matrix:
Smallest eigenvalue                        ... 1.449e-03
Time for diagonalization                   ...    0.000 sec
Threshold for overlap eigenvalues          ... 1.000e-08
Number of eigenvalues below threshold      ... 0
Time for construction of square roots      ...    0.000 sec
Total time needed                          ...    0.000 sec

SHARK General Contraction Test:  Segmented basis detected
   -> Pre-screening matrix found on disk - Trying to read with NShells=27
   -> Passing Pre-screening matrix on to SHARK ...ok
   -> Leaving CheckPreScreeningMatrix
----------------------
SHARK INTEGRAL PACKAGE
----------------------

Number of atoms                             ...      5
Number of basis functions                   ...     55
Number of shells                            ...     27
Maximum angular momentum                    ...      3
Integral batch strategy                     ... SHARK/LIBINT Hybrid
RI-J (if used) integral strategy            ... SPLIT-RIJ (Revised 2003 algorithm where possible)
Printlevel                                  ...      2
Contraction scheme used                     ... SEGMENTED contraction
Coulomb Range Separation                    ... NOT USED
Exchange Range Separation                   ... Long Range
   Mu parameter                             ...  0.300000
   Scaling (regular/separated)              ...  0.167000  0.833000
Finite Nucleus Model                        ... NOT USED
Auxiliary Coulomb fitting basis             ... AVAILABLE
   # of basis functions in Aux-J            ...     93
   # of shells in Aux-J                     ...     35
   Maximum angular momentum in Aux-J        ...      4
Auxiliary J/K fitting basis                 ... NOT available
Auxiliary Correlation fitting basis         ... NOT available
Auxiliary 'external' fitting basis          ... NOT available
Integral threshold                          ...     2.500000e-11
Primitive cut-off                           ...     2.500000e-12
Primitive pair pre-selection threshold      ...     2.500000e-12

Time for model grid setup =    0.007 sec

------------------------------
INITIAL GUESS: MODEL POTENTIAL
------------------------------
Loading Hartree-Fock densities                     ... done
Calculating cut-offs                               ... done
Initializing the effective Hamiltonian             ... done
Setting up the integral package (SHARK)            ... done
Starting the Coulomb interaction                   ...     -> Generating integrals - 
    -> L=0 0 :     0.001 sec done=      4743 skipped=         0 prim-skipped=         0
    -> L=1 0 :     0.000 sec done=      3689 skipped=         0 prim-skipped=         0
    -> L=1 1 :     0.000 sec done=       868 skipped=         0 prim-skipped=         0
    -> L=2 0 :     0.000 sec done=      1054 skipped=         0 prim-skipped=         0
    -> L=2 1 :     0.000 sec done=       434 skipped=         0 prim-skipped=         0
    -> L=2 2 :     0.000 sec done=        93 skipped=         0 prim-skipped=         0
    -> L=3 0 :     0.000 sec done=       527 skipped=         0 prim-skipped=         0
    -> L=3 1 :     0.000 sec done=       217 skipped=         0 prim-skipped=         0
    -> L=3 2 :     0.000 sec done=        62 skipped=         0 prim-skipped=         0
    -> L=3 3 :     0.000 sec done=        31 skipped=         0 prim-skipped=         0
done (   0.0 sec)
Reading the grid                                   ... done
Mapping shells                                     ... done
Starting the XC term evaluation                    ... done (   0.0 sec)
  promolecular density results
     # of electrons  =     10.002413443
     EX              =     -3.978917396
     EC              =     -0.358666977
     EX+EC           =     -4.337584373
Transforming the Hamiltonian                       ... done (   0.0 sec)
Diagonalizing the Hamiltonian                      ... done (   0.0 sec)
Back transforming the eigenvectors                 ... done (   0.0 sec)
Now organizing SCF variables                       ... done
                      ------------------
                      INITIAL GUESS DONE (   0.0 sec)
                      ------------------
-------------------
DFT GRID GENERATION
-------------------

General Integration Accuracy     IntAcc      ... 4.388
Radial Grid Type                 RadialGrid  ... OptM3 with GC (2021)
Angular Grid (max. ang.)         AngularGrid ... 4 (Lebedev-302)
Angular grid pruning method      GridPruning ... 4 (adaptive)
Weight generation scheme         WeightScheme... Becke
Basis function cutoff            BFCut       ... 1.0000e-11
Integration weight cutoff        WCut        ... 1.0000e-14
Angular grids for H and He will be reduced by one unit
Partially contracted basis set               ... off
Rotationally invariant grid construction     ... off

Total number of grid points                  ...    19244
Total number of batches                      ...      304
Average number of points per batch           ...       63
Average number of grid points per atom       ...     3849
Time for grid setup =    0.046 sec

--------------------
COSX GRID GENERATION
--------------------

GRIDX 1
-------
General Integration Accuracy     IntAcc      ... 3.816
Radial Grid Type                 RadialGrid  ... OptM3 with GC (2021)
Angular Grid (max. ang.)         AngularGrid ... 1 (Lebedev-50)
Angular grid pruning method      GridPruning ... 4 (adaptive)
Weight generation scheme         WeightScheme... Becke
Basis function cutoff            BFCut       ... 1.0000e-11
Integration weight cutoff        WCut        ... 1.0000e-14
Angular grids for H and He will be reduced by one unit
Partially contracted basis set               ... on
Rotationally invariant grid construction     ... off

Total number of grid points                  ...     2472
Total number of batches                      ...       41
Average number of points per batch           ...       60
Average number of grid points per atom       ...      494
UseSFitting                                  ... on

GRIDX 2
-------
General Integration Accuracy     IntAcc      ... 4.020
Radial Grid Type                 RadialGrid  ... OptM3 with GC (2021)
Angular Grid (max. ang.)         AngularGrid ... 2 (Lebedev-110)
Angular grid pruning method      GridPruning ... 4 (adaptive)
Weight generation scheme         WeightScheme... Becke
Basis function cutoff            BFCut       ... 1.0000e-11
Integration weight cutoff        WCut        ... 1.0000e-14
Angular grids for H and He will be reduced by one unit
Partially contracted basis set               ... on
Rotationally invariant grid construction     ... off

Total number of grid points                  ...     5008
Total number of batches                      ...       81
Average number of points per batch           ...       61
Average number of grid points per atom       ...     1002
UseSFitting                                  ... on

GRIDX 3
-------
General Integration Accuracy     IntAcc      ... 4.338
Radial Grid Type                 RadialGrid  ... OptM3 with GC (2021)
Angular Grid (max. ang.)         AngularGrid ... 3 (Lebedev-194)
Angular grid pruning method      GridPruning ... 4 (adaptive)
Weight generation scheme         WeightScheme... Becke
Basis function cutoff            BFCut       ... 1.0000e-11
Integration weight cutoff        WCut        ... 1.0000e-14
Angular grids for H and He will be reduced by one unit
Partially contracted basis set               ... on
Rotationally invariant grid construction     ... off

Total number of grid points                  ...    11132
Total number of batches                      ...      177
Average number of points per batch           ...       62
Average number of grid points per atom       ...     2226
UseSFitting                                  ... on

Time for X-Grid setup             =    0.039 sec

--------------
SCF ITERATIONS
--------------
               ***  Starting incremental Fock matrix formation  ***
==>> SHARK/AuxDens: NDens=1 Thresh =     2.500000e-11 TCut=    2.500000e-12 Lmax=3 LmaxAux=4
    -> Making Hermite density - ok     0.000 sec
    -> Making Aux-basis density - (lmax=3)
    -> L=0 0:    0.001 sec done=      5355 (100.0%) skipped=         0 
    -> L=1 0:    0.001 sec done=      3728 ( 89.5%) skipped=       437 
    -> L=1 1:    0.000 sec done=       980 (100.0%) skipped=         0 
    -> L=2 0:    0.000 sec done=       840 ( 70.6%) skipped=       350 
    -> L=2 1:    0.000 sec done=       490 (100.0%) skipped=         0 
    -> L=2 2:    0.000 sec done=       105 (100.0%) skipped=         0 
    -> L=3 0:    0.000 sec done=       595 (100.0%) skipped=         0 
    -> L=3 1:    0.000 sec done=       245 (100.0%) skipped=         0 
    -> L=3 2:    0.000 sec done=        70 (100.0%) skipped=         0 
    -> L=3 3:    0.000 sec done=        35 (100.0%) skipped=         0 
    -> Aux basis density formed in    0.0 sec
    -> Solving linear equations - ok (   0.0 sec)
        Auxbasis Hermite Density:
        P|s>                     ...  0.000
        P|p>                     ...  0.000
        P|d>                     ...  0.000
        P|f>                     ...  0.000
        P|g>                     ...  0.000
        Building the Coulomb matrix: 
        J|ss>                          ... done (  0.0 sec) ndone=    24754 nskipped1=      850 nskipped2=      664
        J|ps>                          ... done (  0.0 sec) ndone=    16182 nskipped1=      463 nskipped2=      224
        J|pp>                          ... done (  0.0 sec) ndone=     3390 nskipped1=       16 nskipped2=        0
        J|ds>                          ... done (  0.0 sec) ndone=     3346 nskipped1=       86 nskipped2=        0
        J|dp>                          ... done (  0.0 sec) ndone=     1118 nskipped1=        1 nskipped2=        0
        J|dd>                          ... done (  0.0 sec) ndone=      168 nskipped1=        0 nskipped2=        0
        J|fs>                          ... done (  0.0 sec) ndone=     1658 nskipped1=       56 nskipped2=        0
        J|fp>                          ... done (  0.0 sec) ndone=      558 nskipped1=        1 nskipped2=        0
        J|fd>                          ... done (  0.0 sec) ndone=      112 nskipped1=        0 nskipped2=        0
        J|ff>                          ... done (  0.0 sec) ndone=       56 nskipped1=        0 nskipped2=        0
        Coulomb matrix built in   0.0 sec

        Total time for Split-RI-J                ...    0.004 sec
          (0) Prelude                            ...    0.000 sec
          (1) Hermite density                    ...    0.000 sec
          (2) Aux basis density                  ...    0.000 sec (inner=  0.0)
          (3) Linear equation solution           ...    0.000 sec
          (4) J-Matrix construction              ...    0.001 sec (inner=  0.0)
        ---------------------------------------------------------

                         ----------------------------
                         !        ITERATION     0   !
                         ----------------------------
   Total Energy        :     -40.539856477934 Eh
   Energy Change       :     -40.539856477934 Eh
   MAX-DP              :       0.006604799738
   RMS-DP              :       0.000382101303
   Actual Damping      :       0.8500
   Actual Level Shift  :       0.2500 Eh
   Int. Num. El.       :    10.00006525 (UP=    5.00003263 DN=    5.00003263)
   Exchange            :    -4.19760133
   Correlation         :    -0.37206478

==>> SHARK/AuxDens: NDens=1 Thresh =     2.500000e-11 TCut=    2.500000e-12 Lmax=3 LmaxAux=4
    -> Making Hermite density - ok     0.000 sec
    -> Making Aux-basis density - (lmax=3)
    -> L=0 0:    0.001 sec done=      5355 (100.0%) skipped=         0 
    -> L=1 0:    0.001 sec done=      4131 ( 99.2%) skipped=        34 
    -> L=1 1:    0.000 sec done=       980 (100.0%) skipped=         0 
    -> L=2 0:    0.000 sec done=      1144 ( 96.1%) skipped=        46 
    -> L=2 1:    0.000 sec done=       490 (100.0%) skipped=         0 
    -> L=2 2:    0.000 sec done=       105 (100.0%) skipped=         0 
    -> L=3 0:    0.000 sec done=       595 (100.0%) skipped=         0 
    -> L=3 1:    0.000 sec done=       245 (100.0%) skipped=         0 
    -> L=3 2:    0.000 sec done=        70 (100.0%) skipped=         0 
    -> L=3 3:    0.000 sec done=        35 (100.0%) skipped=         0 
    -> Aux basis density formed in    0.0 sec
    -> Solving linear equations - ok (   0.0 sec)
        Auxbasis Hermite Density:
        P|s>                     ...  0.000
        P|p>                     ...  0.000
        P|d>                     ...  0.000
        P|f>                     ...  0.000
        P|g>                     ...  0.000
        Building the Coulomb matrix: 
        J|ss>                          ... done (  0.0 sec) ndone=    25350 nskipped1=      438 nskipped2=      700
        J|ps>                          ... done (  0.0 sec) ndone=    16700 nskipped1=      130 nskipped2=      232
        J|pp>                          ... done (  0.0 sec) ndone=     3416 nskipped1=        0 nskipped2=        0
        J|ds>                          ... done (  0.0 sec) ndone=     3400 nskipped1=       52 nskipped2=        0
        J|dp>                          ... done (  0.0 sec) ndone=     1120 nskipped1=        0 nskipped2=        0
        J|dd>                          ... done (  0.0 sec) ndone=      168 nskipped1=        0 nskipped2=        0
        J|fs>                          ... done (  0.0 sec) ndone=     1676 nskipped1=       46 nskipped2=        0
        J|fp>                          ... done (  0.0 sec) ndone=      560 nskipped1=        0 nskipped2=        0
        J|fd>                          ... done (  0.0 sec) ndone=      112 nskipped1=        0 nskipped2=        0
        J|ff>                          ... done (  0.0 sec) ndone=       56 nskipped1=        0 nskipped2=        0
        Coulomb matrix built in   0.0 sec

        Total time for Split-RI-J                ...    0.004 sec
          (0) Prelude                            ...    0.000 sec
          (1) Hermite density                    ...    0.000 sec
          (2) Aux basis density                  ...    0.000 sec (inner=  0.0)
          (3) Linear equation solution           ...    0.000 sec
          (4) J-Matrix construction              ...    0.001 sec (inner=  0.0)
        ---------------------------------------------------------

                         ----------------------------
                         !        ITERATION     1   !
                         ----------------------------
   Total Energy        :     -40.543229532983 Eh
   Energy Change       :      -0.003373055049 Eh
   MAX-DP              :       0.005862755990
   RMS-DP              :       0.000377874369
   Actual Damping      :       0.8500
   Actual Level Shift  :       0.2500 Eh
   Int. Num. El.       :    10.00006593 (UP=    5.00003296 DN=    5.00003296)
   Exchange            :    -4.19137263
   Correlation         :    -0.37129876

==>> SHARK/AuxDens: NDens=1 Thresh =     2.500000e-11 TCut=    2.500000e-12 Lmax=3 LmaxAux=4
    -> Making Hermite density - ok     0.000 sec
    -> Making Aux-basis density - (lmax=3)
    -> L=0 0:    0.001 sec done=      5355 (100.0%) skipped=         0 
    -> L=1 0:    0.001 sec done=      4130 ( 99.2%) skipped=        35 
    -> L=1 1:    0.000 sec done=       980 (100.0%) skipped=         0 
    -> L=2 0:    0.000 sec done=      1144 ( 96.1%) skipped=        46 
    -> L=2 1:    0.000 sec done=       490 (100.0%) skipped=         0 
    -> L=2 2:    0.000 sec done=       105 (100.0%) skipped=         0 
    -> L=3 0:    0.000 sec done=       595 (100.0%) skipped=         0 
    -> L=3 1:    0.000 sec done=       245 (100.0%) skipped=         0 
    -> L=3 2:    0.000 sec done=        70 (100.0%) skipped=         0 
    -> L=3 3:    0.000 sec done=        35 (100.0%) skipped=         0 
    -> Aux basis density formed in    0.0 sec
    -> Solving linear equations - ok (   0.0 sec)
        Auxbasis Hermite Density:
        P|s>                     ...  0.000
        P|p>                     ...  0.000
        P|d>                     ...  0.000
        P|f>                     ...  0.000
        P|g>                     ...  0.000
        Building the Coulomb matrix: 
        J|ss>                          ... done (  0.0 sec) ndone=    25350 nskipped1=      438 nskipped2=      700
        J|ps>                          ... done (  0.0 sec) ndone=    16700 nskipped1=      130 nskipped2=      232
        J|pp>                          ... done (  0.0 sec) ndone=     3404 nskipped1=        6 nskipped2=        0
        J|ds>                          ... done (  0.0 sec) ndone=     3394 nskipped1=       58 nskipped2=        0
        J|dp>                          ... done (  0.0 sec) ndone=     1120 nskipped1=        0 nskipped2=        0
        J|dd>                          ... done (  0.0 sec) ndone=      168 nskipped1=        0 nskipped2=        0
        J|fs>                          ... done (  0.0 sec) ndone=     1676 nskipped1=       46 nskipped2=        0
        J|fp>                          ... done (  0.0 sec) ndone=      560 nskipped1=        0 nskipped2=        0
        J|fd>                          ... done (  0.0 sec) ndone=      112 nskipped1=        0 nskipped2=        0
        J|ff>                          ... done (  0.0 sec) ndone=       56 nskipped1=        0 nskipped2=        0
        Coulomb matrix built in   0.0 sec

        Total time for Split-RI-J                ...    0.004 sec
          (0) Prelude                            ...    0.000 sec
          (1) Hermite density                    ...    0.000 sec
          (2) Aux basis density                  ...    0.000 sec (inner=  0.0)
          (3) Linear equation solution           ...    0.000 sec
          (4) J-Matrix construction              ...    0.001 sec (inner=  0.0)
        ---------------------------------------------------------
                               ***Turning on DIIS***

                         ----------------------------
                         !        ITERATION     2   !
                         ----------------------------
   Total Energy        :     -40.545801447165 Eh
   Energy Change       :      -0.002571914183 Eh
   MAX-DP              :       0.004787713049
   RMS-DP              :       0.000313367486
   Actual Damping      :       0.8500
   Actual Level Shift  :       0.2500 Eh
   Int. Num. El.       :    10.00006644 (UP=    5.00003322 DN=    5.00003322)
   Exchange            :    -4.18519635
   Correlation         :    -0.37054167
   DIIS-Error          :       0.184195164554

==>> SHARK/AuxDens: NDens=1 Thresh =     2.500000e-11 TCut=    2.500000e-12 Lmax=3 LmaxAux=4
    -> Making Hermite density - ok     0.000 sec
    -> Making Aux-basis density - (lmax=3)
    -> L=0 0:    0.001 sec done=      5355 (100.0%) skipped=         0 
    -> L=1 0:    0.001 sec done=      4126 ( 99.1%) skipped=        39 
    -> L=1 1:    0.000 sec done=       980 (100.0%) skipped=         0 
    -> L=2 0:    0.000 sec done=      1138 ( 95.6%) skipped=        52 
    -> L=2 1:    0.000 sec done=       490 (100.0%) skipped=         0 
    -> L=2 2:    0.000 sec done=       105 (100.0%) skipped=         0 
    -> L=3 0:    0.000 sec done=       595 (100.0%) skipped=         0 
    -> L=3 1:    0.000 sec done=       245 (100.0%) skipped=         0 
    -> L=3 2:    0.000 sec done=        70 (100.0%) skipped=         0 
    -> L=3 3:    0.000 sec done=        35 (100.0%) skipped=         0 
    -> Aux basis density formed in    0.0 sec
    -> Solving linear equations - ok (   0.0 sec)
        Auxbasis Hermite Density:
        P|s>                     ...  0.000
        P|p>                     ...  0.000
        P|d>                     ...  0.000
        P|f>                     ...  0.000
        P|g>                     ...  0.000
        Building the Coulomb matrix: 
        J|ss>                          ... done (  0.0 sec) ndone=    25350 nskipped1=      438 nskipped2=      700
        J|ps>                          ... done (  0.0 sec) ndone=    16676 nskipped1=      154 nskipped2=      232
        J|pp>                          ... done (  0.0 sec) ndone=     3404 nskipped1=        6 nskipped2=        0
        J|ds>                          ... done (  0.0 sec) ndone=     3394 nskipped1=       58 nskipped2=        0
        J|dp>                          ... done (  0.0 sec) ndone=     1120 nskipped1=        0 nskipped2=        0
        J|dd>                          ... done (  0.0 sec) ndone=      168 nskipped1=        0 nskipped2=        0
        J|fs>                          ... done (  0.0 sec) ndone=     1676 nskipped1=       46 nskipped2=        0
        J|fp>                          ... done (  0.0 sec) ndone=      560 nskipped1=        0 nskipped2=        0
        J|fd>                          ... done (  0.0 sec) ndone=      112 nskipped1=        0 nskipped2=        0
        J|ff>                          ... done (  0.0 sec) ndone=       56 nskipped1=        0 nskipped2=        0
        Coulomb matrix built in   0.0 sec

        Total time for Split-RI-J                ...    0.004 sec
          (0) Prelude                            ...    0.000 sec
          (1) Hermite density                    ...    0.000 sec
          (2) Aux basis density                  ...    0.000 sec (inner=  0.0)
          (3) Linear equation solution           ...    0.000 sec
          (4) J-Matrix construction              ...    0.001 sec (inner=  0.0)
        ---------------------------------------------------------

                         ----------------------------
                         !        ITERATION     3   !
                         ----------------------------
   Total Energy        :     -40.547731070147 Eh
   Energy Change       :      -0.001929622981 Eh
   MAX-DP              :       0.004392945479
   RMS-DP              :       0.000229941222
   Actual Damping      :       0.8500
   Actual Level Shift  :       0.2500 Eh
   Int. Num. El.       :    10.00006667 (UP=    5.00003333 DN=    5.00003333)
   Exchange            :    -4.18069951
   Correlation         :    -0.36993823
   DIIS-Error          :       0.157177205017
   DIIS coefficients:
     -1.70440   2.70440

==>> SHARK/AuxDens: NDens=1 Thresh =     2.500000e-11 TCut=    2.500000e-12 Lmax=3 LmaxAux=4
    -> Making Hermite density - ok     0.000 sec
    -> Making Aux-basis density - (lmax=3)
    -> L=0 0:    0.001 sec done=      5355 (100.0%) skipped=         0 
    -> L=1 0:    0.001 sec done=      4126 ( 99.1%) skipped=        39 
    -> L=1 1:    0.000 sec done=       980 (100.0%) skipped=         0 
    -> L=2 0:    0.000 sec done=      1138 ( 95.6%) skipped=        52 
    -> L=2 1:    0.000 sec done=       490 (100.0%) skipped=         0 
    -> L=2 2:    0.000 sec done=       105 (100.0%) skipped=         0 
    -> L=3 0:    0.000 sec done=       595 (100.0%) skipped=         0 
    -> L=3 1:    0.000 sec done=       245 (100.0%) skipped=         0 
    -> L=3 2:    0.000 sec done=        70 (100.0%) skipped=         0 
    -> L=3 3:    0.000 sec done=        35 (100.0%) skipped=         0 
    -> Aux basis density formed in    0.0 sec
    -> Solving linear equations - ok (   0.0 sec)
        Auxbasis Hermite Density:
        P|s>                     ...  0.000
        P|p>                     ...  0.000
        P|d>                     ...  0.000
        P|f>                     ...  0.000
        P|g>                     ...  0.000
        Building the Coulomb matrix: 
        J|ss>                          ... done (  0.0 sec) ndone=    25218 nskipped1=      522 nskipped2=      700
        J|ps>                          ... done (  0.0 sec) ndone=    16672 nskipped1=      156 nskipped2=      232
        J|pp>                          ... done (  0.0 sec) ndone=     3404 nskipped1=        6 nskipped2=        0
        J|ds>                          ... done (  0.0 sec) ndone=     3394 nskipped1=       58 nskipped2=        0
        J|dp>                          ... done (  0.0 sec) ndone=     1120 nskipped1=        0 nskipped2=        0
        J|dd>                          ... done (  0.0 sec) ndone=      168 nskipped1=        0 nskipped2=        0
        J|fs>                          ... done (  0.0 sec) ndone=     1676 nskipped1=       46 nskipped2=        0
        J|fp>                          ... done (  0.0 sec) ndone=      560 nskipped1=        0 nskipped2=        0
        J|fd>                          ... done (  0.0 sec) ndone=      112 nskipped1=        0 nskipped2=        0
        J|ff>                          ... done (  0.0 sec) ndone=       56 nskipped1=        0 nskipped2=        0
        Coulomb matrix built in   0.0 sec

        Total time for Split-RI-J                ...    0.004 sec
          (0) Prelude                            ...    0.000 sec
          (1) Hermite density                    ...    0.000 sec
          (2) Aux basis density                  ...    0.000 sec (inner=  0.0)
          (3) Linear equation solution           ...    0.000 sec
          (4) J-Matrix construction              ...    0.001 sec (inner=  0.0)
        ---------------------------------------------------------

                         ----------------------------
                         !        ITERATION     4   !
                         ----------------------------
   Total Energy        :     -40.549234163055 Eh
   Energy Change       :      -0.001503092908 Eh
   MAX-DP              :       0.003833316228
   RMS-DP              :       0.000180202630
   Actual Damping      :       0.8500
   Actual Level Shift  :       0.2500 Eh
   Int. Num. El.       :    10.00006646 (UP=    5.00003323 DN=    5.00003323)
   Exchange            :    -4.17896200
   Correlation         :    -0.36956722
   DIIS-Error          :       0.133483625735
   DIIS coefficients:
     -1.07525  -0.74661   2.82186

==>> SHARK/AuxDens: NDens=1 Thresh =     2.500000e-11 TCut=    2.500000e-12 Lmax=3 LmaxAux=4
    -> Making Hermite density - ok     0.000 sec
    -> Making Aux-basis density - (lmax=3)
    -> L=0 0:    0.001 sec done=      5355 (100.0%) skipped=         0 
    -> L=1 0:    0.001 sec done=      4126 ( 99.1%) skipped=        39 
    -> L=1 1:    0.000 sec done=       980 (100.0%) skipped=         0 
    -> L=2 0:    0.000 sec done=      1137 ( 95.5%) skipped=        53 
    -> L=2 1:    0.000 sec done=       490 (100.0%) skipped=         0 
    -> L=2 2:    0.000 sec done=       105 (100.0%) skipped=         0 
    -> L=3 0:    0.000 sec done=       595 (100.0%) skipped=         0 
    -> L=3 1:    0.000 sec done=       245 (100.0%) skipped=         0 
    -> L=3 2:    0.000 sec done=        70 (100.0%) skipped=         0 
    -> L=3 3:    0.000 sec done=        35 (100.0%) skipped=         0 
    -> Aux basis density formed in    0.0 sec
    -> Solving linear equations - ok (   0.0 sec)
        Auxbasis Hermite Density:
        P|s>                     ...  0.000
        P|p>                     ...  0.000
        P|d>                     ...  0.000
        P|f>                     ...  0.000
        P|g>                     ...  0.000
        Building the Coulomb matrix: 
        J|ss>                          ... done (  0.0 sec) ndone=    25206 nskipped1=      528 nskipped2=      700
        J|ps>                          ... done (  0.0 sec) ndone=    16620 nskipped1=      182 nskipped2=      232
        J|pp>                          ... done (  0.0 sec) ndone=     3404 nskipped1=        6 nskipped2=        0
        J|ds>                          ... done (  0.0 sec) ndone=     3390 nskipped1=       60 nskipped2=        0
        J|dp>                          ... done (  0.0 sec) ndone=     1120 nskipped1=        0 nskipped2=        0
        J|dd>                          ... done (  0.0 sec) ndone=      168 nskipped1=        0 nskipped2=        0
        J|fs>                          ... done (  0.0 sec) ndone=     1676 nskipped1=       46 nskipped2=        0
        J|fp>                          ... done (  0.0 sec) ndone=      560 nskipped1=        0 nskipped2=        0
        J|fd>                          ... done (  0.0 sec) ndone=      112 nskipped1=        0 nskipped2=        0
        J|ff>                          ... done (  0.0 sec) ndone=       56 nskipped1=        0 nskipped2=        0
        Coulomb matrix built in   0.0 sec

        Total time for Split-RI-J                ...    0.004 sec
          (0) Prelude                            ...    0.000 sec
          (1) Hermite density                    ...    0.000 sec
          (2) Aux basis density                  ...    0.000 sec (inner=  0.0)
          (3) Linear equation solution           ...    0.000 sec
          (4) J-Matrix construction              ...    0.001 sec (inner=  0.0)
        ---------------------------------------------------------

                         ----------------------------
                         !        ITERATION     5   !
                         ----------------------------
   Total Energy        :     -40.550423870925 Eh
   Energy Change       :      -0.001189707870 Eh
   MAX-DP              :       0.003288885607
   RMS-DP              :       0.000152005352
   Actual Damping      :       0.8500
   Actual Level Shift  :       0.2500 Eh
   Int. Num. El.       :    10.00006601 (UP=    5.00003301 DN=    5.00003301)
   Exchange            :    -4.17868050
   Correlation         :    -0.36933684
   DIIS-Error          :       0.113125078056
   DIIS coefficients:
     -0.62630  -0.60558  -0.41163   2.64351

==>> SHARK/AuxDens: NDens=1 Thresh =     2.500000e-11 TCut=    2.500000e-12 Lmax=3 LmaxAux=4
    -> Making Hermite density - ok     0.000 sec
    -> Making Aux-basis density - (lmax=3)
    -> L=0 0:    0.001 sec done=      5355 (100.0%) skipped=         0 
    -> L=1 0:    0.001 sec done=      4121 ( 98.9%) skipped=        44 
    -> L=1 1:    0.000 sec done=       980 (100.0%) skipped=         0 
    -> L=2 0:    0.000 sec done=      1134 ( 95.3%) skipped=        56 
    -> L=2 1:    0.000 sec done=       490 (100.0%) skipped=         0 
    -> L=2 2:    0.000 sec done=       105 (100.0%) skipped=         0 
    -> L=3 0:    0.000 sec done=       595 (100.0%) skipped=         0 
    -> L=3 1:    0.000 sec done=       245 (100.0%) skipped=         0 
    -> L=3 2:    0.000 sec done=        70 (100.0%) skipped=         0 
    -> L=3 3:    0.000 sec done=        35 (100.0%) skipped=         0 
    -> Aux basis density formed in    0.0 sec
    -> Solving linear equations - ok (   0.0 sec)
        Auxbasis Hermite Density:
        P|s>                     ...  0.000
        P|p>                     ...  0.000
        P|d>                     ...  0.000
        P|f>                     ...  0.000
        P|g>                     ...  0.000
        Building the Coulomb matrix: 
        J|ss>                          ... done (  0.0 sec) ndone=    25122 nskipped1=      570 nskipped2=      700
        J|ps>                          ... done (  0.0 sec) ndone=    16588 nskipped1=      201 nskipped2=      232
        J|pp>                          ... done (  0.0 sec) ndone=     3404 nskipped1=        6 nskipped2=        0
        J|ds>                          ... done (  0.0 sec) ndone=     3380 nskipped1=       65 nskipped2=        0
        J|dp>                          ... done (  0.0 sec) ndone=     1118 nskipped1=        1 nskipped2=        0
        J|dd>                          ... done (  0.0 sec) ndone=      168 nskipped1=        0 nskipped2=        0
        J|fs>                          ... done (  0.0 sec) ndone=     1668 nskipped1=       50 nskipped2=        0
        J|fp>                          ... done (  0.0 sec) ndone=      558 nskipped1=        1 nskipped2=        0
        J|fd>                          ... done (  0.0 sec) ndone=      112 nskipped1=        0 nskipped2=        0
        J|ff>                          ... done (  0.0 sec) ndone=       56 nskipped1=        0 nskipped2=        0
        Coulomb matrix built in   0.0 sec

        Total time for Split-RI-J                ...    0.004 sec
          (0) Prelude                            ...    0.000 sec
          (1) Hermite density                    ...    0.000 sec
          (2) Aux basis density                  ...    0.000 sec (inner=  0.0)
          (3) Linear equation solution           ...    0.000 sec
          (4) J-Matrix construction              ...    0.001 sec (inner=  0.0)
        ---------------------------------------------------------

                         ----------------------------
                         !        ITERATION     6   !
                         ----------------------------
   Total Energy        :     -40.551398003084 Eh
   Energy Change       :      -0.000974132159 Eh
   MAX-DP              :       0.002828627540
   RMS-DP              :       0.000132040215
   Actual Damping      :       0.8500
   Actual Level Shift  :       0.2500 Eh
   Int. Num. El.       :    10.00006549 (UP=    5.00003274 DN=    5.00003274)
   Exchange            :    -4.17884255
   Correlation         :    -0.36917028
   DIIS-Error          :       0.095882343047
   DIIS coefficients:
     -0.37644  -0.42080  -0.38777  -0.25328   2.43829

==>> SHARK/AuxDens: NDens=1 Thresh =     2.500000e-11 TCut=    2.500000e-12 Lmax=3 LmaxAux=4
    -> Making Hermite density - ok     0.000 sec
    -> Making Aux-basis density - (lmax=3)
    -> L=0 0:    0.001 sec done=      5355 (100.0%) skipped=         0 
    -> L=1 0:    0.001 sec done=      4117 ( 98.8%) skipped=        48 
    -> L=1 1:    0.000 sec done=       980 (100.0%) skipped=         0 
    -> L=2 0:    0.000 sec done=      1128 ( 94.8%) skipped=        62 
    -> L=2 1:    0.000 sec done=       490 (100.0%) skipped=         0 
    -> L=2 2:    0.000 sec done=       105 (100.0%) skipped=         0 
    -> L=3 0:    0.000 sec done=       595 (100.0%) skipped=         0 
    -> L=3 1:    0.000 sec done=       245 (100.0%) skipped=         0 
    -> L=3 2:    0.000 sec done=        70 (100.0%) skipped=         0 
    -> L=3 3:    0.000 sec done=        35 (100.0%) skipped=         0 
    -> Aux basis density formed in    0.0 sec
    -> Solving linear equations - ok (   0.0 sec)
        Auxbasis Hermite Density:
        P|s>                     ...  0.000
        P|p>                     ...  0.000
        P|d>                     ...  0.000
        P|f>                     ...  0.000
        P|g>                     ...  0.000
        Building the Coulomb matrix: 
        J|ss>                          ... done (  0.0 sec) ndone=    25122 nskipped1=      588 nskipped2=      676
        J|ps>                          ... done (  0.0 sec) ndone=    16588 nskipped1=      201 nskipped2=      232
        J|pp>                          ... done (  0.0 sec) ndone=     3404 nskipped1=        6 nskipped2=        0
        J|ds>                          ... done (  0.0 sec) ndone=     3382 nskipped1=       64 nskipped2=        0
        J|dp>                          ... done (  0.0 sec) ndone=     1118 nskipped1=        1 nskipped2=        0
        J|dd>                          ... done (  0.0 sec) ndone=      168 nskipped1=        0 nskipped2=        0
        J|fs>                          ... done (  0.0 sec) ndone=     1668 nskipped1=       50 nskipped2=        0
        J|fp>                          ... done (  0.0 sec) ndone=      560 nskipped1=        0 nskipped2=        0
        J|fd>                          ... done (  0.0 sec) ndone=      112 nskipped1=        0 nskipped2=        0
        J|ff>                          ... done (  0.0 sec) ndone=       56 nskipped1=        0 nskipped2=        0
        Coulomb matrix built in   0.0 sec

        Total time for Split-RI-J                ...    0.004 sec
          (0) Prelude                            ...    0.000 sec
          (1) Hermite density                    ...    0.000 sec
          (2) Aux basis density                  ...    0.000 sec (inner=  0.0)
          (3) Linear equation solution           ...    0.000 sec
          (4) J-Matrix construction              ...    0.001 sec (inner=  0.0)
        ---------------------------------------------------------

                         ----------------------------
                         !        ITERATION     7   !
                         ----------------------------
   Total Energy        :     -40.552211578293 Eh
   Energy Change       :      -0.000813575209 Eh
   MAX-DP              :       0.002431740697
   RMS-DP              :       0.000117050567
   Actual Damping      :       0.8500
   Actual Level Shift  :       0.2500 Eh
   Int. Num. El.       :    10.00006497 (UP=    5.00003248 DN=    5.00003248)
   Exchange            :    -4.17908079
   Correlation         :    -0.36903566
   DIIS-Error          :       0.081324420175
   DIIS coefficients:
      2.51128  -0.45270  -0.44319  -0.37667  -0.23873

==>> SHARK/AuxDens: NDens=1 Thresh =     2.500000e-11 TCut=    2.500000e-12 Lmax=3 LmaxAux=4
    -> Making Hermite density - ok     0.000 sec
    -> Making Aux-basis density - (lmax=3)
    -> L=0 0:    0.001 sec done=      5355 (100.0%) skipped=         0 
    -> L=1 0:    0.001 sec done=      4108 ( 98.6%) skipped=        57 
    -> L=1 1:    0.000 sec done=       980 (100.0%) skipped=         0 
    -> L=2 0:    0.000 sec done=      1127 ( 94.7%) skipped=        63 
    -> L=2 1:    0.000 sec done=       490 (100.0%) skipped=         0 
    -> L=2 2:    0.000 sec done=       105 (100.0%) skipped=         0 
    -> L=3 0:    0.000 sec done=       595 (100.0%) skipped=         0 
    -> L=3 1:    0.000 sec done=       245 (100.0%) skipped=         0 
    -> L=3 2:    0.000 sec done=        70 (100.0%) skipped=         0 
    -> L=3 3:    0.000 sec done=        35 (100.0%) skipped=         0 
    -> Aux basis density formed in    0.0 sec
    -> Solving linear equations - ok (   0.0 sec)
        Auxbasis Hermite Density:
        P|s>                     ...  0.000
        P|p>                     ...  0.000
        P|d>                     ...  0.000
        P|f>                     ...  0.000
        P|g>                     ...  0.000
        Building the Coulomb matrix: 
        J|ss>                          ... done (  0.0 sec) ndone=    25122 nskipped1=      588 nskipped2=      676
        J|ps>                          ... done (  0.0 sec) ndone=    16570 nskipped1=      231 nskipped2=      232
        J|pp>                          ... done (  0.0 sec) ndone=     3404 nskipped1=        6 nskipped2=        0
        J|ds>                          ... done (  0.0 sec) ndone=     3390 nskipped1=       60 nskipped2=        0
        J|dp>                          ... done (  0.0 sec) ndone=     1120 nskipped1=        0 nskipped2=        0
        J|dd>                          ... done (  0.0 sec) ndone=      168 nskipped1=        0 nskipped2=        0
        J|fs>                          ... done (  0.0 sec) ndone=     1676 nskipped1=       46 nskipped2=        0
        J|fp>                          ... done (  0.0 sec) ndone=      560 nskipped1=        0 nskipped2=        0
        J|fd>                          ... done (  0.0 sec) ndone=      112 nskipped1=        0 nskipped2=        0
        J|ff>                          ... done (  0.0 sec) ndone=       56 nskipped1=        0 nskipped2=        0
        Coulomb matrix built in   0.0 sec

        Total time for Split-RI-J                ...    0.005 sec
          (0) Prelude                            ...    0.000 sec
          (1) Hermite density                    ...    0.000 sec
          (2) Aux basis density                  ...    0.000 sec (inner=  0.0)
          (3) Linear equation solution           ...    0.000 sec
          (4) J-Matrix construction              ...    0.002 sec (inner=  0.0)
        ---------------------------------------------------------

                         ----------------------------
                         !        ITERATION     8   !
                         ----------------------------
   Total Energy        :     -40.552898923988 Eh
   Energy Change       :      -0.000687345695 Eh
   MAX-DP              :       0.002091262095
   RMS-DP              :       0.000102802974
   Actual Damping      :       0.8500
   Actual Level Shift  :       0.2500 Eh
   Int. Num. El.       :    10.00006448 (UP=    5.00003224 DN=    5.00003224)
   Exchange            :    -4.17921012
   Correlation         :    -0.36891548
   DIIS-Error          :       0.069087540388
   DIIS coefficients:
     -0.24476   2.55450  -0.47547  -0.45203  -0.38224

==>> SHARK/AuxDens: NDens=1 Thresh =     2.500000e-11 TCut=    2.500000e-12 Lmax=3 LmaxAux=4
    -> Making Hermite density - ok     0.000 sec
    -> Making Aux-basis density - (lmax=3)
    -> L=0 0:    0.001 sec done=      5355 (100.0%) skipped=         0 
    -> L=1 0:    0.001 sec done=      4103 ( 98.5%) skipped=        62 
    -> L=1 1:    0.000 sec done=       980 (100.0%) skipped=         0 
    -> L=2 0:    0.000 sec done=      1124 ( 94.5%) skipped=        66 
    -> L=2 1:    0.000 sec done=       490 (100.0%) skipped=         0 
    -> L=2 2:    0.000 sec done=       105 (100.0%) skipped=         0 
    -> L=3 0:    0.000 sec done=       595 (100.0%) skipped=         0 
    -> L=3 1:    0.000 sec done=       245 (100.0%) skipped=         0 
    -> L=3 2:    0.000 sec done=        70 (100.0%) skipped=         0 
    -> L=3 3:    0.000 sec done=        35 (100.0%) skipped=         0 
    -> Aux basis density formed in    0.0 sec
    -> Solving linear equations - ok (   0.0 sec)
        Auxbasis Hermite Density:
        P|s>                     ...  0.000
        P|p>                     ...  0.000
        P|d>                     ...  0.000
        P|f>                     ...  0.000
        P|g>                     ...  0.000
        Building the Coulomb matrix: 
        J|ss>                          ... done (  0.0 sec) ndone=    24914 nskipped1=      770 nskipped2=      652
        J|ps>                          ... done (  0.0 sec) ndone=    16406 nskipped1=      323 nskipped2=      224
        J|pp>                          ... done (  0.0 sec) ndone=     3404 nskipped1=        6 nskipped2=        0
        J|ds>                          ... done (  0.0 sec) ndone=     3374 nskipped1=       71 nskipped2=        0
        J|dp>                          ... done (  0.0 sec) ndone=     1118 nskipped1=        1 nskipped2=        0
        J|dd>                          ... done (  0.0 sec) ndone=      168 nskipped1=        0 nskipped2=        0
        J|fs>                          ... done (  0.0 sec) ndone=     1666 nskipped1=       51 nskipped2=        0
        J|fp>                          ... done (  0.0 sec) ndone=      558 nskipped1=        1 nskipped2=        0
        J|fd>                          ... done (  0.0 sec) ndone=      112 nskipped1=        0 nskipped2=        0
        J|ff>                          ... done (  0.0 sec) ndone=       56 nskipped1=        0 nskipped2=        0
        Coulomb matrix built in   0.0 sec

        Total time for Split-RI-J                ...    0.004 sec
          (0) Prelude                            ...    0.000 sec
          (1) Hermite density                    ...    0.000 sec
          (2) Aux basis density                  ...    0.000 sec (inner=  0.0)
          (3) Linear equation solution           ...    0.000 sec
          (4) J-Matrix construction              ...    0.001 sec (inner=  0.0)
        ---------------------------------------------------------

                         ----------------------------
                         !        ITERATION     9   !
                         ----------------------------
   Total Energy        :     -40.553478464649 Eh
   Energy Change       :      -0.000579540661 Eh
   MAX-DP              :       0.001791226390
   RMS-DP              :       0.000088960381
   Actual Damping      :       0.8500
   Actual Level Shift  :       0.2500 Eh
   Int. Num. El.       :    10.00006405 (UP=    5.00003202 DN=    5.00003202)
   Exchange            :    -4.17928795
   Correlation         :    -0.36881008
   DIIS-Error          :       0.058732258824
   DIIS coefficients:
     -0.38337  -0.24587   2.55417  -0.47408  -0.45085

==>> SHARK/AuxDens: NDens=1 Thresh =     2.500000e-11 TCut=    2.500000e-12 Lmax=3 LmaxAux=4
    -> Making Hermite density - ok     0.000 sec
    -> Making Aux-basis density - (lmax=3)
    -> L=0 0:    0.001 sec done=      5355 (100.0%) skipped=         0 
    -> L=1 0:    0.001 sec done=      4089 ( 98.2%) skipped=        76 
    -> L=1 1:    0.000 sec done=       980 (100.0%) skipped=         0 
    -> L=2 0:    0.000 sec done=      1122 ( 94.3%) skipped=        68 
    -> L=2 1:    0.000 sec done=       490 (100.0%) skipped=         0 
    -> L=2 2:    0.000 sec done=       105 (100.0%) skipped=         0 
    -> L=3 0:    0.000 sec done=       595 (100.0%) skipped=         0 
    -> L=3 1:    0.000 sec done=       245 (100.0%) skipped=         0 
    -> L=3 2:    0.000 sec done=        70 (100.0%) skipped=         0 
    -> L=3 3:    0.000 sec done=        35 (100.0%) skipped=         0 
    -> Aux basis density formed in    0.0 sec
    -> Solving linear equations - ok (   0.0 sec)
        Auxbasis Hermite Density:
        P|s>                     ...  0.000
        P|p>                     ...  0.000
        P|d>                     ...  0.000
        P|f>                     ...  0.000
        P|g>                     ...  0.000
        Building the Coulomb matrix: 
        J|ss>                          ... done (  0.0 sec) ndone=    24898 nskipped1=      778 nskipped2=      652
        J|ps>                          ... done (  0.0 sec) ndone=    16406 nskipped1=      323 nskipped2=      224
        J|pp>                          ... done (  0.0 sec) ndone=     3398 nskipped1=       12 nskipped2=        0
        J|ds>                          ... done (  0.0 sec) ndone=     3370 nskipped1=       74 nskipped2=        0
        J|dp>                          ... done (  0.0 sec) ndone=     1118 nskipped1=        1 nskipped2=        0
        J|dd>                          ... done (  0.0 sec) ndone=      168 nskipped1=        0 nskipped2=        0
        J|fs>                          ... done (  0.0 sec) ndone=     1664 nskipped1=       52 nskipped2=        0
        J|fp>                          ... done (  0.0 sec) ndone=      558 nskipped1=        1 nskipped2=        0
        J|fd>                          ... done (  0.0 sec) ndone=      112 nskipped1=        0 nskipped2=        0
        J|ff>                          ... done (  0.0 sec) ndone=       56 nskipped1=        0 nskipped2=        0
        Coulomb matrix built in   0.0 sec

        Total time for Split-RI-J                ...    0.004 sec
          (0) Prelude                            ...    0.000 sec
          (1) Hermite density                    ...    0.000 sec
          (2) Aux basis density                  ...    0.000 sec (inner=  0.0)
          (3) Linear equation solution           ...    0.000 sec
          (4) J-Matrix construction              ...    0.001 sec (inner=  0.0)
        ---------------------------------------------------------

                         ----------------------------
                         !        ITERATION    10   !
                         ----------------------------
   Total Energy        :     -40.553966454457 Eh
   Energy Change       :      -0.000487989808 Eh
   MAX-DP              :       0.001528358194
   RMS-DP              :       0.000076367438
   Actual Damping      :       0.8500
   Actual Level Shift  :       0.2500 Eh
   Int. Num. El.       :    10.00006365 (UP=    5.00003183 DN=    5.00003183)
   Exchange            :    -4.17936997
   Correlation         :    -0.36872082
   DIIS-Error          :       0.049925038547
   DIIS coefficients:
     -0.44612  -0.37955  -0.24291   2.53738  -0.46880

==>> SHARK/AuxDens: NDens=1 Thresh =     2.500000e-11 TCut=    2.500000e-12 Lmax=3 LmaxAux=4
    -> Making Hermite density - ok     0.000 sec
    -> Making Aux-basis density - (lmax=3)
    -> L=0 0:    0.001 sec done=      5355 (100.0%) skipped=         0 
    -> L=1 0:    0.001 sec done=      4089 ( 98.2%) skipped=        76 
    -> L=1 1:    0.000 sec done=       980 (100.0%) skipped=         0 
    -> L=2 0:    0.000 sec done=      1122 ( 94.3%) skipped=        68 
    -> L=2 1:    0.000 sec done=       490 (100.0%) skipped=         0 
    -> L=2 2:    0.000 sec done=       105 (100.0%) skipped=         0 
    -> L=3 0:    0.000 sec done=       595 (100.0%) skipped=         0 
    -> L=3 1:    0.000 sec done=       245 (100.0%) skipped=         0 
    -> L=3 2:    0.000 sec done=        70 (100.0%) skipped=         0 
    -> L=3 3:    0.000 sec done=        35 (100.0%) skipped=         0 
    -> Aux basis density formed in    0.0 sec
    -> Solving linear equations - ok (   0.0 sec)
        Auxbasis Hermite Density:
        P|s>                     ...  0.000
        P|p>                     ...  0.000
        P|d>                     ...  0.000
        P|f>                     ...  0.000
        P|g>                     ...  0.000
        Building the Coulomb matrix: 
        J|ss>                          ... done (  0.0 sec) ndone=    24826 nskipped1=      838 nskipped2=      652
        J|ps>                          ... done (  0.0 sec) ndone=    16304 nskipped1=      393 nskipped2=      224
        J|pp>                          ... done (  0.0 sec) ndone=     3390 nskipped1=       16 nskipped2=        0
        J|ds>                          ... done (  0.0 sec) ndone=     3330 nskipped1=       94 nskipped2=        0
        J|dp>                          ... done (  0.0 sec) ndone=     1110 nskipped1=        5 nskipped2=        0
        J|dd>                          ... done (  0.0 sec) ndone=      168 nskipped1=        0 nskipped2=        0
        J|fs>                          ... done (  0.0 sec) ndone=     1652 nskipped1=       59 nskipped2=        0
        J|fp>                          ... done (  0.0 sec) ndone=      558 nskipped1=        1 nskipped2=        0
        J|fd>                          ... done (  0.0 sec) ndone=      112 nskipped1=        0 nskipped2=        0
        J|ff>                          ... done (  0.0 sec) ndone=       56 nskipped1=        0 nskipped2=        0
        Coulomb matrix built in   0.0 sec

        Total time for Split-RI-J                ...    0.004 sec
          (0) Prelude                            ...    0.000 sec
          (1) Hermite density                    ...    0.000 sec
          (2) Aux basis density                  ...    0.000 sec (inner=  0.0)
          (3) Linear equation solution           ...    0.000 sec
          (4) J-Matrix construction              ...    0.001 sec (inner=  0.0)
        ---------------------------------------------------------

                         ----------------------------
                         !        ITERATION    11   !
                         ----------------------------
   Total Energy        :     -40.554377780240 Eh
   Energy Change       :      -0.000411325783 Eh
   MAX-DP              :       0.001301844354
   RMS-DP              :       0.000065413171
   Actual Damping      :       0.8500
   Actual Level Shift  :       0.2500 Eh
   Int. Num. El.       :    10.00006330 (UP=    5.00003165 DN=    5.00003165)
   Exchange            :    -4.17946599
   Correlation         :    -0.36864632
   DIIS-Error          :       0.042426801836
   DIIS coefficients:
     -0.46460  -0.44296  -0.37686  -0.24084   2.52526

==>> SHARK/AuxDens: NDens=1 Thresh =     2.500000e-11 TCut=    2.500000e-12 Lmax=3 LmaxAux=4
    -> Making Hermite density - ok     0.000 sec
    -> Making Aux-basis density - (lmax=3)
    -> L=0 0:    0.001 sec done=      5355 (100.0%) skipped=         0 
    -> L=1 0:    0.001 sec done=      4073 ( 97.8%) skipped=        92 
    -> L=1 1:    0.000 sec done=       980 (100.0%) skipped=         0 
    -> L=2 0:    0.000 sec done=      1121 ( 94.2%) skipped=        69 
    -> L=2 1:    0.000 sec done=       490 (100.0%) skipped=         0 
    -> L=2 2:    0.000 sec done=       105 (100.0%) skipped=         0 
    -> L=3 0:    0.000 sec done=       595 (100.0%) skipped=         0 
    -> L=3 1:    0.000 sec done=       245 (100.0%) skipped=         0 
    -> L=3 2:    0.000 sec done=        70 (100.0%) skipped=         0 
    -> L=3 3:    0.000 sec done=        35 (100.0%) skipped=         0 
    -> Aux basis density formed in    0.0 sec
    -> Solving linear equations - ok (   0.0 sec)
        Auxbasis Hermite Density:
        P|s>                     ...  0.000
        P|p>                     ...  0.000
        P|d>                     ...  0.000
        P|f>                     ...  0.000
        P|g>                     ...  0.000
        Building the Coulomb matrix: 
        J|ss>                          ... done (  0.0 sec) ndone=    24790 nskipped1=      868 nskipped2=      652
        J|ps>                          ... done (  0.0 sec) ndone=    16300 nskipped1=      396 nskipped2=      224
        J|pp>                          ... done (  0.0 sec) ndone=     3390 nskipped1=       16 nskipped2=        0
        J|ds>                          ... done (  0.0 sec) ndone=     3326 nskipped1=       96 nskipped2=        0
        J|dp>                          ... done (  0.0 sec) ndone=     1110 nskipped1=        5 nskipped2=        0
        J|dd>                          ... done (  0.0 sec) ndone=      168 nskipped1=        0 nskipped2=        0
        J|fs>                          ... done (  0.0 sec) ndone=     1652 nskipped1=       59 nskipped2=        0
        J|fp>                          ... done (  0.0 sec) ndone=      550 nskipped1=        5 nskipped2=        0
        J|fd>                          ... done (  0.0 sec) ndone=      112 nskipped1=        0 nskipped2=        0
        J|ff>                          ... done (  0.0 sec) ndone=       56 nskipped1=        0 nskipped2=        0
        Coulomb matrix built in   0.0 sec

        Total time for Split-RI-J                ...    0.004 sec
          (0) Prelude                            ...    0.000 sec
          (1) Hermite density                    ...    0.000 sec
          (2) Aux basis density                  ...    0.000 sec (inner=  0.0)
          (3) Linear equation solution           ...    0.000 sec
          (4) J-Matrix construction              ...    0.001 sec (inner=  0.0)
        ---------------------------------------------------------

                         ----------------------------
                         !        ITERATION    12   !
                         ----------------------------
   Total Energy        :     -40.554725089888 Eh
   Energy Change       :      -0.000347309648 Eh
   MAX-DP              :       0.001108788901
   RMS-DP              :       0.000056053443
[...]
 0 C  f+1             4.3       7.3       5.5       3.0       0.5       0.0
 0 C  f-1             8.3       3.6       1.8       0.6       6.7       0.0
 0 C  f-2             0.0       0.0       0.0       0.0       0.0      48.0
 0 C  f+3             7.2      12.2       9.2       5.0       0.9       0.0
 0 C  f-3            13.8       6.1       3.0       0.9      11.1       0.0
 1 H  s               0.1       4.4      16.3       1.2       0.2       7.1
 1 H  pz              0.1       3.9       2.0       0.8       0.1       0.2
 1 H  px              1.2       2.2       2.8       0.0       0.0       0.2
 1 H  py              0.4       3.1       2.0       0.2       0.6       0.2
 2 H  s               0.1       1.4       3.7       7.2       6.8       7.1
 2 H  pz              0.1       3.3       0.0       1.7       1.1       0.2
 2 H  px              1.0       0.2       1.2       1.3       0.3       0.2
 2 H  py              0.5       0.5       0.7       0.3       1.8       0.2
 3 H  s               3.3       0.0       0.1      15.1       2.4       7.1
 3 H  pz              4.2       0.1       0.2       2.7       0.0       0.2
 3 H  px              1.8       1.3       0.3       2.2       0.4       0.2
 3 H  py              1.2       0.2       0.2       1.5       1.1       0.2
 4 H  s               3.0       0.6       3.5       0.0      14.1       7.1
 4 H  pz              4.1       0.2       0.7       0.3       1.8       0.2
 4 H  px              1.6       0.0       1.2       0.2       1.4       0.2
 4 H  py              1.0       2.3       0.0       0.0       2.7       0.2

                     54   
                  22.29264
                   0.00000
                  --------
 0 C  s              98.7
 0 C  f-2             0.1
 1 H  s               0.2
 2 H  s               0.2
 3 H  s               0.2
 4 H  s               0.2


                      *****************************
                      * MAYER POPULATION ANALYSIS *
                      *****************************

  NA   - Mulliken gross atomic population
  ZA   - Total nuclear charge
  QA   - Mulliken gross atomic charge
  VA   - Mayer's total valence
  BVA  - Mayer's bonded valence
  FA   - Mayer's free valence

  ATOM       NA         ZA         QA         VA         BVA        FA
  0 C      6.4734     6.0000    -0.4734     3.9221     3.9221    -0.0000
  1 H      0.8816     1.0000     0.1184     0.9725     0.9725    -0.0000
  2 H      0.8816     1.0000     0.1184     0.9725     0.9725    -0.0000
  3 H      0.8816     1.0000     0.1184     0.9725     0.9725    -0.0000
  4 H      0.8816     1.0000     0.1184     0.9725     0.9725    -0.0000

  Mayer bond orders larger than 0.100000
B(  0-C ,  1-H ) :   0.9805 B(  0-C ,  2-H ) :   0.9805 B(  0-C ,  3-H ) :   0.9805 
B(  0-C ,  4-H ) :   0.9805 

-------
TIMINGS
-------

Total SCF time: 0 days 0 hours 0 min 3 sec 

Total time                  ....       3.111 sec
Sum of individual times     ....       3.063 sec  ( 98.5%)

Fock matrix formation       ....       2.948 sec  ( 94.8%)
  Split-RI-J                ....       0.129 sec  (  4.4% of F)
  Chain of spheres X        ....       1.901 sec  ( 64.5% of F)
  XC integration            ....       0.923 sec  ( 31.3% of F)
    Basis function eval.    ....       0.232 sec  ( 25.1% of XC)
    Density eval.           ....       0.161 sec  ( 17.4% of XC)
    XC-Functional eval.     ....       0.366 sec  ( 39.6% of XC)
    XC-Potential eval.      ....       0.120 sec  ( 13.0% of XC)
Diagonalization             ....       0.004 sec  (  0.1%)
Density matrix formation    ....       0.000 sec  (  0.0%)
Population analysis         ....       0.002 sec  (  0.1%)
Initial guess               ....       0.013 sec  (  0.4%)
Orbital Transformation      ....       0.000 sec  (  0.0%)
Orbital Orthonormalization  ....       0.000 sec  (  0.0%)
DIIS solution               ....       0.002 sec  (  0.1%)
SOSCF solution              ....       0.001 sec  (  0.0%)
Grid generation             ....       0.093 sec  (  3.0%)

Maximum memory used throughout the entire SCF-calculation: 60.8 MB


-------------------------------------------------------------------------------
                          DFT DISPERSION CORRECTION                            
                                                                               
                              DFTD3 V3.1  Rev 1                                
                          USING Becke-Johnson damping                          
-------------------------------------------------------------------------------
The WB97X-D3BJ functional is recognized
Active option DFTDOPT                   ...         4   

molecular C6(AA) [au] = 127.657453 


            DFT-D V3
 parameters
 s6 scaling factor         :     1.0000 
 a1 scaling factor         :     0.0000 
 s8 scaling factor         :     0.2641 
 a2 scaling factor         :     5.4959 
 ad hoc parameters k1-k3   :    16.0000     1.3333    -4.0000 

 Edisp/kcal,au: -1.235742051474  -0.001969280100 
 E6   /kcal   :  -1.080647758 
 E8   /kcal   :  -0.155094293 
 % E8         :  12.550701259 

-------------------------   ----------------
Dispersion correction           -0.001969280
-------------------------   ----------------


-------------------------   --------------------
FINAL SINGLE POINT ENERGY       -40.558619988905
-------------------------   --------------------

------------------------------------------------------------------------------
                         ORCA SCF GRADIENT CALCULATION
------------------------------------------------------------------------------

SHARK General Contraction Test:  Segmented basis detected
   -> Pre-screening matrix found on disk - Trying to read with NShells=27
   -> Passing Pre-screening matrix on to SHARK ...ok
   -> Leaving CheckPreScreeningMatrix
----------------------
SHARK INTEGRAL PACKAGE
----------------------

Number of atoms                             ...      5
Number of basis functions                   ...     55
Number of shells                            ...     27
Maximum angular momentum                    ...      3
Integral batch strategy                     ... SHARK/LIBINT Hybrid
RI-J (if used) integral strategy            ... SPLIT-RIJ (Revised 2003 algorithm where possible)
Printlevel                                  ...      2
Contraction scheme used                     ... SEGMENTED contraction
Coulomb Range Separation                    ... NOT USED
Exchange Range Separation                   ... Long Range
   Mu parameter                             ...  0.300000
   Scaling (regular/separated)              ...  0.167000  0.833000
Finite Nucleus Model                        ... NOT USED
Auxiliary Coulomb fitting basis             ... AVAILABLE
   # of basis functions in Aux-J            ...     93
   # of shells in Aux-J                     ...     35
   Maximum angular momentum in Aux-J        ...      4
Auxiliary J/K fitting basis                 ... NOT available
Auxiliary Correlation fitting basis         ... NOT available
Auxiliary 'external' fitting basis          ... NOT available
Integral threshold                          ...     2.500000e-11
Primitive cut-off                           ...     2.500000e-12
Primitive pair pre-selection threshold      ...     2.500000e-12

 ... reading COSX grid (gridx3)
Gradient of the Kohn-Sham DFT energy:
Kohn-Sham wavefunction type      ... RKS
Hartree-Fock exchange scaling    ...    0.167
Number of operators              ...    1
Number of atoms                  ...    5
Basis set dimensions             ...   55
Integral neglect threshold       ... 2.5e-11
Integral primitive cutoff        ... 2.5e-12
SHARK Integral package           ... ON

Nuc. rep. gradient       (SHARK) ... done (  0.0 sec)
HCore & Overlap gradient (SHARK) ... done (  0.0 sec)
RI-J gradient            (SHARK) ... 
==>> SHARK/Split-RI-J/Grad: Thresh =     2.500000e-11 TCut=    2.500000e-12 Lmax=3 LmaxAux=4 UseGC=0 UseActualInts=0
==>> SHARK/AuxDens: NDens=1 Thresh =     2.500000e-11 TCut=    2.500000e-12 Lmax=3 LmaxAux=4
    -> Making Hermite density - ok     0.000 sec
    -> Making Aux-basis density - (lmax=3)
    -> L=0 0:    0.001 sec done=      5355 (100.0%) skipped=         0 
    -> L=1 0:    0.001 sec done=      4156 ( 99.8%) skipped=         9 
    -> L=1 1:    0.000 sec done=       980 (100.0%) skipped=         0 
    -> L=2 0:    0.000 sec done=      1190 (100.0%) skipped=         0 
    -> L=2 1:    0.000 sec done=       490 (100.0%) skipped=         0 
    -> L=2 2:    0.000 sec done=       105 (100.0%) skipped=         0 
    -> L=3 0:    0.000 sec done=       595 (100.0%) skipped=         0 
    -> L=3 1:    0.000 sec done=       245 (100.0%) skipped=         0 
    -> L=3 2:    0.000 sec done=        70 (100.0%) skipped=         0 
    -> L=3 3:    0.000 sec done=        35 (100.0%) skipped=         0 
    -> Aux basis density formed in    0.0 sec
    -> Solving linear equations - ok (   0.0 sec)
    -> Making Gradient pre-screening matrices - done (  0.0 sec)
    -> Making Aux_E - done (  0.0 sec)
    -> Making two-index integral derivative - done (  0.0 sec)
    -> Making Aux_EP - done (  0.0 sec)
    -> Making three-index integral derivative
    -> L=0 0 :     0.002 sec done=      4822 skipped=       533 prim-skipped=         0
    -> L=1 0 :     0.002 sec done=      3664 skipped=       501 prim-skipped=         0
    -> L=1 1 :     0.001 sec done=       800 skipped=       180 prim-skipped=         0
    -> L=2 0 :     0.001 sec done=       978 skipped=       212 prim-skipped=         0
    -> L=2 1 :     0.001 sec done=       348 skipped=       142 prim-skipped=         0
    -> L=2 2 :     0.000 sec done=        60 skipped=        45 prim-skipped=         0
    -> L=3 0 :     0.000 sec done=       468 skipped=       127 prim-skipped=         0
    -> L=3 1 :     0.001 sec done=       172 skipped=        73 prim-skipped=         0
    -> L=3 2 :     0.000 sec done=        40 skipped=        30 prim-skipped=         0
    -> L=3 3 :     0.000 sec done=        20 skipped=        15 prim-skipped=         0
    -> Three index derivative done (  0.0 sec)
    -> SHARK RI-J gradient done in   0.0 sec
done (  0.0 sec)
COSX-gradient                    ... done (  0.3 sec)
Exchange-correlation gradient    ... done
Dispersion correction            ... done

------------------
CARTESIAN GRADIENT
------------------

   1   C   :   -0.000000012   -0.000000009   -0.000000035
   2   H   :   -0.000433001   -0.000432972   -0.000432997
   3   H   :    0.000432983    0.000432987   -0.000432983
   4   H   :   -0.000432963    0.000433005    0.000433009
   5   H   :    0.000432990   -0.000433004    0.000432969

Difference to translation invariance:
           :   -0.0000000024    0.0000000072   -0.0000000377

Difference to rotation invariance:
           :   -0.0000000790   -0.0000000838    0.0000000978

Norm of the cartesian gradient     ...    0.0014999159
RMS gradient                       ...    0.0003872766
MAX gradient                       ...    0.0004330087

-------
TIMINGS
-------

Total SCF gradient time            ...        0.581 sec

One electron gradient       ....       0.004 sec  (  0.6%)
RI-J Coulomb gradient       ....       0.036 sec  (  6.3%)
COSX gradient               ....       0.292 sec  ( 50.3%)
XC gradient                 ....       0.174 sec  ( 29.9%)

Maximum memory used throughout the entire SCFGRAD-calculation: 35.9 MB
------------------------------------------------------------------------------
                         ORCA GEOMETRY RELAXATION STEP
------------------------------------------------------------------------------

Reading the OPT-File                    .... done
Getting information on internals        .... done
Copying old internal coords+grads       .... done
Making the new internal coordinates     .... (new redundants).... done
Validating the new internal coordinates .... (new redundants).... done
Calculating the B-matrix                .... done
Calculating the G,G- and P matrices     .... done
Transforming gradient to internals      .... done
Projecting the internal gradient        .... done
Number of atoms                         ....   5
Number of internal coordinates          ....  10
Current Energy                          ....   -40.558619989 Eh
Current gradient norm                   ....     0.001499916 Eh/bohr
Maximum allowed component of the step   ....  0.300
Current trust radius                    ....  0.300
Evaluating the initial hessian          ....  (Almloef) done
Projecting the Hessian                  .... done
Forming the augmented Hessian           .... done
Diagonalizing the augmented Hessian     .... done
Last element of RFO vector              ....  0.999991347
Lowest eigenvalues of augmented Hessian:
 -0.000006240  0.290952118  0.290952118  0.290952118  0.290952118
Length of the computed step             ....  0.004160071
The final length of the internal step   ....  0.004160071
Converting the step to cartesian space:
 Initial RMS(Int)=    0.0013155300
Transforming coordinates:
 Iter   0:  RMS(Cart)=    0.0010741257 RMS(Int)=    0.0013155300
 Iter   1:  RMS(Cart)=    0.0000000000 RMS(Int)=    0.0000000000
done
Storing new coordinates                 .... done

                                .--------------------.
          ----------------------|Geometry convergence|-------------------------
          Item                value                   Tolerance       Converged
          ---------------------------------------------------------------------
          RMS gradient        0.0004743151            0.0001000000      NO
          MAX gradient        0.0007499678            0.0003000000      NO
          RMS step            0.0013155300            0.0020000000      YES
          MAX step            0.0020800629            0.0040000000      YES
          ........................................................
          Max(Bonds)      0.0011      Max(Angles)    0.00
          Max(Dihed)        0.00      Max(Improp)    0.00
          ---------------------------------------------------------------------

The optimization has not yet converged - more geometry cycles are needed


    ---------------------------------------------------------------------------
                         Redundant Internal Coordinates
                            (Angstroem and degrees)

        Definition                    Value    dE/dq     Step     New-Value
    ----------------------------------------------------------------------------
     1. B(H   1,C   0)                1.0897 -0.000750  0.0011    1.0908   
     2. B(H   2,C   0)                1.0897 -0.000750  0.0011    1.0908   
     3. B(H   3,C   0)                1.0897 -0.000750  0.0011    1.0908   
     4. B(H   4,C   0)                1.0897 -0.000750  0.0011    1.0908   
     5. A(H   1,C   0,H   3)          109.47 -0.000000    0.00    109.47   
     6. A(H   2,C   0,H   3)          109.47  0.000000   -0.00    109.47   
     7. A(H   1,C   0,H   4)          109.47 -0.000000    0.00    109.47   
     8. A(H   2,C   0,H   4)          109.47  0.000000   -0.00    109.47   
     9. A(H   3,C   0,H   4)          109.47  0.000000   -0.00    109.47   
    10. A(H   1,C   0,H   2)          109.47 -0.000000    0.00    109.47   
    ----------------------------------------------------------------------------




    ----------------------------------------------------------------------------
                                  WARNING !!!
       The optimization did not converge but reached the maximum number of
       optimization cycles.
       Please check your results very carefully.
    ----------------------------------------------------------------------------



                            ***************************************
                            *     ORCA property calculations      *
                            ***************************************

                                    ---------------------
                                    Active property flags
                                    ---------------------
   (+) Dipole Moment


------------------------------------------------------------------------------
                       ORCA ELECTRIC PROPERTIES CALCULATION
------------------------------------------------------------------------------

Dipole Moment Calculation                       ... on
Quadrupole Moment Calculation                   ... off
Polarizability Calculation                      ... off
GBWName                                         ... orca.gbw
Electron density                                ... orca.scfp
SHARK General Contraction Test:  Segmented basis detected
   -> Pre-screening matrix found on disk - Trying to read with NShells=27
   -> Passing Pre-screening matrix on to SHARK ...ok
   -> Leaving CheckPreScreeningMatrix
----------------------
SHARK INTEGRAL PACKAGE
----------------------

Number of atoms                             ...      5
Number of basis functions                   ...     55
Number of shells                            ...     27
Maximum angular momentum                    ...      3
Integral batch strategy                     ... SHARK/LIBINT Hybrid
RI-J (if used) integral strategy            ... SPLIT-RIJ (Revised 2003 algorithm where possible)
Printlevel                                  ...      2
Contraction scheme used                     ... SEGMENTED contraction
Coulomb Range Separation                    ... NOT USED
Exchange Range Separation                   ... Long Range
   Mu parameter                             ...  0.300000
   Scaling (regular/separated)              ...  0.167000  0.833000
Finite Nucleus Model                        ... NOT USED
Auxiliary Coulomb fitting basis             ... AVAILABLE
   # of basis functions in Aux-J            ...     93
   # of shells in Aux-J                     ...     35
   Maximum angular momentum in Aux-J        ...      4
Auxiliary J/K fitting basis                 ... NOT available
Auxiliary Correlation fitting basis         ... NOT available
Auxiliary 'external' fitting basis          ... NOT available
Integral threshold                          ...     2.500000e-11
Primitive cut-off                           ...     2.500000e-12
Primitive pair pre-selection threshold      ...     2.500000e-12

The origin for moment calculation is the CENTER OF MASS  = ( 0.000000,  0.000000  0.000000)

-------------
DIPOLE MOMENT
-------------
                                X             Y             Z
Electronic contribution:      0.00000       0.00000       0.00000
Nuclear contribution   :     -0.00000      -0.00000      -0.00000
                        -----------------------------------------
Total Dipole Moment    :      0.00000       0.00000       0.00000
                        -----------------------------------------
Magnitude (a.u.)       :      0.00000
Magnitude (Debye)      :      0.00000



--------------------
Rotational spectrum 
--------------------
 
Rotational constants in cm-1:     5.271148     5.271148     5.271148 
Rotational constants in MHz : 158025.046858 158025.040642 158025.037790 

 Dipole components along the rotational axes: 
x,y,z [a.u.] :    -0.000001    -0.000000     0.000000 
x,y,z [Debye]:    -0.000001    -0.000000     0.000000 

 

Timings for individual modules:

Sum of individual times         ...        3.781 sec (=   0.063 min)
GTO integral calculation        ...        0.064 sec (=   0.001 min)   1.7 %
SCF iterations                  ...        3.115 sec (=   0.052 min)  82.4 %
SCF Gradient evaluation         ...        0.592 sec (=   0.010 min)  15.7 %
Geometry relaxation             ...        0.010 sec (=   0.000 min)   0.3 %
                             ****ORCA TERMINATED NORMALLY****
TOTAL RUN TIME: 0 days 0 hours 0 minutes 3 seconds 839 msec
